ITEM: TIMESTEP
0
ITEM: NUMBER OF ATOMS
768
ITEM: BOX BOUNDS ss pp pp
-6.6502451872036172e-01 4.2278819267736196e+01
0.0000000000000000e+00 1.4440000000000000e+01
0.0000000000000000e+00 1.4440000000000000e+01
ITEM: ATOMS id vx vy vz
3 -0.0969055 2.68815 1.01681
6 -2.24583 0.596486 3.21315
20 1.13426 -3.47953 1.20091
21 -0.716008 0.142395 -1.8554
67 0.756816 1.13548 0.0679523
85 -2.13537 -1.43835 -1.89397
69 -4.53707 -2.24091 0.262598
70 -1.81387 -1.36533 0.510474
84 -3.8172 2.82596 0.893761
149 -3.94865 -0.446398 2.00947
131 2.60755 -1.14581 3.67367
133 -0.342526 -1.16456 4.68685
66 -2.07545 1.28834 -0.705846
129 -2.67894 -2.40259 1.12285
68 -0.315843 -2.61095 -0.383498
145 0.391798 0.344953 -2.33774
134 -1.17983 2.11203 1.22529
148 -0.484824 0.353948 -0.301061
195 -3.89709 1.5203 0.798102
213 -0.493907 -1.69055 -0.394856
197 -2.72797 0.198002 -1.01316
130 -1.10068 -3.58454 1.71035
209 -2.70938 -1.8112 -0.754964
198 -1.28954 0.18242 1.77001
212 -0.0855416 1.70735 1.02591
259 -0.160795 2.10653 -1.38822
277 -0.601409 0.345415 0.549623
196 -0.658385 0.560338 -0.822396
273 2.2678 -2.27175 2.06708
194 -2.21104 -1.10679 1.37894
262 2.02773 -4.62387 1.40804
276 -1.50652 -0.168541 -0.856041
323 -1.40751 0.999523 -0.370608
341 3.83974 0.929725 -3.26648
258 1.05416 2.29558 -1.27756
260 -2.26969 -3.53549 1.43372
326 0.559869 -3.30661 -0.980886
340 0.319402 -3.3296 -1.44288
387 -0.719285 -1.88455 -1.37546
405 -3.09317 -1.8657 -2.93008
322 -3.33858 -3.10885 -0.0663345
389 2.81362 1.02696 -0.787855
390 4.2345 1.10472 2.05714
404 1.59298 0.547038 -0.878876
451 0.059468 -0.545137 -0.22661
469 4.17218 -0.0219355 2.98109
453 4.1312 -1.1951 2.10228
454 0.564888 1.37178 -0.603025
468 4.37484 0.838377 -0.627277
515 -1.38479 -0.105291 2.43136
533 1.46981 -0.63635 1.47221
517 -2.48432 3.39851 -0.976267
452 -1.68248 2.93845 -0.290434
529 -2.25455 0.557096 -0.693563
518 -2.49212 0.944295 0.828601
532 3.20658 4.18444 1.70574
579 -0.742602 -1.93657 1.3594
597 3.78641 0.720664 -5.08713
577 1.75148 -3.0679 -0.397295
581 -0.515119 -0.0373086 -2.64686
593 -1.33104 0.393434 -1.99958
582 3.85241 -0.242454 -0.572701
596 2.49499 1.38398 -0.883598
643 0.88036 3.77837 -4.14497
661 0.609119 -2.81961 2.55929
646 0.900016 -0.458622 -0.47989
660 1.68211 -0.417467 -1.62755
580 2.31503 -1.41709 -2.35684
645 -0.673864 0.270242 -3.1301
644 0.778562 1.40787 0.723308
642 1.9632 2.07159 -0.339522
641 0.744603 1.38572 -0.948207
707 -0.593032 1.79293 -0.920164
710 0.321343 -1.65534 -1.00307
724 1.45078 0.949807 1.01897
725 -1.37486 2.97139 0.218867
705 0.849688 2.04843 -2.28832
709 -0.9171 1.31645 3.02159
19 0.542166 -0.941427 1.11903
22 -1.32672 -1.98531 -2.09568
35 -0.648995 -1.46621 -4.09243
36 2.36139 -1.47125 -3.89936
37 0.313339 -1.43864 -0.14257
38 -0.668856 1.1555 0.140078
34 0.614169 1.35294 -0.412666
83 -2.70541 0.298579 -0.802734
99 -1.0175 -1.25523 -4.22336
101 -1.33447 -0.884663 2.09577
97 -1.68297 -1.03161 -1.88075
33 -3.88495 -0.0322729 -1.94507
86 -1.90938 1.82856 0.37164
100 -1.22952 -0.6446 -1.38076
102 0.737718 1.22114 -0.0350225
147 -0.515861 -0.898047 -0.579607
163 1.23071 0.188225 1.03112
165 -0.485429 0.334608 -1.00691
82 0.901698 -1.58228 1.97161
161 -0.724094 -1.96392 1.10253
150 1.65211 -3.09686 0.725271
164 -1.68053 1.43003 -0.631538
166 0.956695 2.67392 1.61135
211 -2.64694 2.74282 -0.586473
227 -0.313699 -3.86191 0.00889469
229 3.37739 2.09833 -2.09622
225 1.57095 -2.22008 -3.35728
146 -1.77681 -1.45839 1.58242
162 0.944932 1.77079 1.49645
214 -0.165609 1.00617 2.09258
228 -0.0379778 0.0172674 -0.454625
230 -4.10372 0.00496306 1.01067
275 -1.68361 -0.150848 1.53588
291 0.230181 2.15529 -0.759229
293 -1.70723 0.595877 -1.13479
210 -4.20638 -1.60359 0.0872986
289 -3.67434 -1.09247 2.28557
226 -5.15531 1.43935 2.00831
278 -0.0820004 -2.40323 2.47157
292 0.296975 -0.233498 -0.620443
294 -0.895588 0.204741 3.44165
339 -2.20769 2.33981 -2.26023
355 0.828101 1.42673 -2.40879
357 0.662775 2.16216 -2.06641
290 0.919128 1.22455 -0.2405
353 -1.61315 1.22162 0.0927235
342 3.89696 3.7118 -0.348876
356 0.655247 -1.42107 0.412559
358 1.39882 0.63668 -1.56506
403 1.60608 2.10173 -0.83276
419 3.96901 2.88988 2.52091
421 1.65337 2.14998 -0.855556
417 1.37182 2.0633 1.90534
338 4.38473 1.5091 -1.94259
406 0.826285 -0.014919 2.24446
420 -2.38747 -1.27208 -1.79072
422 0.492083 1.93015 -0.314531
467 0.680328 2.4466 1.51416
483 -1.34633 0.145832 -2.13444
485 -2.46581 -1.22887 -1.76527
418 0.653109 -1.62532 -1.98424
470 0.451027 -2.31683 -2.39584
484 -4.45341 -0.1833 1.17627
486 1.72388 0.696226 0.257898
531 -1.15367 1.72877 2.3896
547 3.45272 -2.16501 0.267308
549 -2.93757 2.57858 -0.10959
545 0.976201 -0.877923 -1.20204
534 -0.404003 -0.972475 2.0352
548 -0.258185 -2.26531 3.83581
550 1.41782 0.50755 -2.3358
595 1.20329 0.18516 1.88582
611 2.55104 0.617901 0.42764
613 2.68184 -2.03402 -0.23263
530 -2.99462 0.263959 -0.0786854
612 3.46159 -1.41956 -2.09489
598 2.24845 3.4381 -2.11295
614 4.41089 5.45028 2.944
659 -3.99559 -1.28408 -1.48257
675 0.0179799 0.21727 -3.88738
677 -0.405492 1.81839 2.56797
662 2.412 -0.220087 1.98339
673 1.4052 -0.5403 -1.56001
676 2.90428 1.03262 -1.50376
678 -0.111982 5.70065 -1.3143
674 2.38279 0.850985 -0.578158
723 1.74948 0.18176 2.21185
726 -1.01208 0.825553 0.530952
739 1.07281 0.941466 -0.35656
740 0.268276 0.142858 -0.70462
741 0.727583 -0.828777 1.63984
742 0.314283 2.05839 -1.28562
738 -0.657084 -0.728369 -3.2424
722 0.881126 1.43832 -1.89531
4 -5.23199 -1.11718 0.975484
5 2.06245 3.01449 1.95762
1 -1.99508 2.76704 4.83851
51 -3.61277 -4.43019 -0.364947
52 -1.3719 0.225071 -0.721283
53 -0.298157 0.41898 -2.83338
54 0.107187 2.63446 -1.56681
117 -6.64581 1.10174 1.86944
113 1.51752 -2.61295 1.32259
115 -1.53184 0.339043 1.04458
116 -1.01718 -0.548218 -0.262112
118 -3.68838 -1.27909 -2.37932
179 4.01804 -0.219387 -2.56638
181 -3.68568 -1.55329 -0.638496
114 -0.442163 1.03756 0.124397
193 -0.794568 -0.908368 1.45014
132 1.53701 0.0376468 -3.10388
180 -2.9417 -1.42604 1.90091
182 -0.0629631 0.482767 -1.62244
243 -2.72901 -4.17306 -1.24705
245 -1.16613 1.55678 0.488627
178 -0.151405 0.494507 -1.15095
241 -3.2435 -3.60319 -2.61053
261 1.74794 -1.73964 -0.365391
244 -4.20546 -1.9858 0.710766
246 -0.229525 -5.19406 1.76754
307 0.396166 0.524037 2.7199
309 -3.62201 -1.05467 -1.20054
242 -2.84626 1.72893 -1.23492
305 -3.90327 1.56511 -1.343
321 -0.258544 5.86509 4.44418
308 1.69768 -0.281613 -0.720748
310 0.885517 0.0478375 -3.0813
325 -2.33396 -0.554704 -0.0277704
371 -1.18883 -0.942098 0.187161
373 -0.147274 1.12674 0.0381903
306 0.973194 0.0558099 -1.47907
324 1.0565 0.819946 1.37703
372 1.96901 -2.93253 -0.10672
374 -1.36638 0.731662 2.15178
435 -1.85999 1.65839 -2.44307
437 3.96627 1.56819 -2.41011
433 -0.203063 -0.307907 -1.73189
370 -0.421568 0.137324 -3.53603
388 2.1504 -2.83744 1.29389
436 0.292492 2.14265 1.19667
438 -0.0887499 -0.891112 -2.79014
499 0.777594 2.59991 -0.0973614
501 -0.0684126 -1.21054 -0.436839
434 0.0675777 4.28288 2.22478
500 0.157573 -0.267354 5.61235
502 -1.0663 -0.615589 -3.66854
563 -1.6196 0.522355 -2.43988
565 4.66745 -1.36499 -1.73518
516 1.63735 -2.14651 0.968802
564 -1.80397 0.363839 -3.36576
566 1.91214 0.102179 -1.36932
627 0.674052 2.60219 -1.19193
629 2.30107 0.834651 1.73779
562 3.04484 -5.81152 0.35369
628 0.615147 1.29615 -1.18798
630 2.54501 1.90847 1.78526
691 0.187047 -6.08594 1.31161
693 1.94518 -1.79747 3.82178
694 0.286094 -1.93058 -1.95946
692 -0.677537 0.480429 2.44795
708 4.37871 -0.500986 -0.0326618
755 -1.65104 -0.265277 1.89118
756 0.624052 0.507637 0.93304
757 0.553493 -1.55591 1.89452
758 -2.19079 -1.24191 0.966108
7 0.281192 -0.542348 -0.220622
10 0.00360918 -0.044382 -3.74542
11 -0.0397637 4.77899 0.718468
24 -0.54177 1.70064 2.24948
25 -2.3506 -0.609073 1.62204
28 1.04733 2.55542 -0.0561161
75 0.107194 0.326969 0.331011
89 -1.07804 0.651629 -1.44992
8 -1.71072 0.207132 -0.137861
9 -1.09341 -1.75063 4.88686
12 0.765272 -2.35567 -2.03294
71 0.0732773 -1.10389 -1.10802
74 -1.42552 0.247888 0.418382
88 4.8272 -1.19226 0.58711
92 -3.28119 0.209769 1.11387
135 -0.832614 0.674316 0.221839
139 -0.86201 -0.0953672 2.07107
153 0.60729 0.420565 0.492723
72 0.914961 4.8222 -1.91682
138 -0.57138 -0.542842 -1.18984
152 -3.8183 3.0313 -4.84567
156 -3.26741 -0.489634 3.7158
199 -0.705685 -3.90091 0.109762
203 -0.313979 -2.8316 2.45394
217 0.48814 -1.18218 -0.856344
202 3.08473 -1.82911 2.19798
216 0.938012 -1.37179 1.46533
220 1.87831 1.49955 -0.11393
263 1.77347 2.51958 -0.626769
267 0.586212 1.47245 -0.532786
281 1.03435 -1.98242 2.33306
200 3.42474 -0.229172 -0.137192
266 0.622606 -0.169729 -0.724666
280 -0.314077 -2.9168 1.4731
284 1.19906 -1.80113 -2.1934
327 0.6407 -2.00724 -2.46197
331 3.18663 2.33286 -2.39894
345 -3.17305 -0.732307 -3.09496
264 -1.40718 0.271957 -0.171621
330 0.278549 -1.51763 -0.117059
344 -1.91192 2.38277 -4.26459
348 -2.54285 0.721812 -2.26678
391 -0.255644 6.77106 0.208177
395 0.836898 0.726929 2.32255
409 -0.543395 0.21084 -0.133373
332 -1.0127 0.780923 1.274
394 1.6487 2.75243 -0.134357
408 0.193589 -1.56306 -1.75262
412 -0.157793 3.52265 0.793002
455 -3.20195 -1.82889 -0.371593
459 0.504576 -1.04008 1.01947
473 0.137017 -2.30886 0.673075
457 -0.872764 -2.0178 0.588448
458 1.27325 -1.79596 1.64355
472 0.137026 2.59667 1.15791
476 1.72734 1.8879 -2.41103
519 1.61695 1.7704 -2.60884
523 0.480372 0.36013 -3.0037
537 1.99364 -1.60147 1.13047
456 -0.599825 -3.62002 6.35556
460 4.11093 0.619291 -0.0477469
521 -0.281967 1.34119 2.0032
522 -0.00319465 1.69909 -0.469139
536 3.52563 1.69074 0.505792
540 2.67895 2.38771 0.903045
583 -0.42591 1.32309 0.946488
587 -0.894971 0.964827 0.623638
601 2.34307 1.27469 1.95665
520 1.35565 3.07047 0.19522
524 -0.713067 -0.900571 4.09715
586 2.01566 0.342447 2.09121
600 -1.54775 -0.806485 1.91952
604 3.65644 1.31868 -2.1228
647 1.28237 -1.4616 1.0253
651 1.14086 2.25783 2.34126
665 -1.00005 1.55573 -2.37992
650 2.51102 -2.4963 -0.4318
668 4.52282 -2.47408 0.241489
664 2.69992 -0.768652 4.43863
648 -0.281693 -0.531609 -1.27468
649 2.74878 0.420157 2.16678
588 0.423216 0.285223 0.230806
584 -1.1693 0.000935916 -0.313059
711 0.438521 0.857827 -1.41853
714 1.71403 -0.0402022 -0.592726
715 2.53222 -0.36268 3.28099
728 3.24151 3.97652 -2.16139
729 3.76333 -3.19211 5.66862
732 0.596566 1.10401 4.13306
713 -2.16106 1.01327 3.09445
712 0.451147 1.06187 1.94916
23 0.11033 1.88276 -3.5172
26 -1.99927 -1.1812 -0.981463
27 -0.0516642 -1.41692 0.689057
39 0.603748 -3.27535 2.61003
40 -2.98991 1.27074 -1.79702
41 0.851213 -2.87226 -2.69979
42 -0.461527 0.930563 -0.0328804
43 1.75461 1.05044 -2.23152
44 0.274276 2.22318 -2.24712
91 -0.965872 -3.08217 -1.1308
87 -6.10109 -1.92322 -1.71639
107 -5.42423 -2.01556 0.0173776
105 -0.974187 1.01772 -2.91364
103 -1.36857 -0.195438 -2.12418
90 0.677614 -2.86947 0.616449
104 1.5324 -4.04968 -0.688226
106 -0.888752 -1.48483 2.57122
108 0.0780508 0.227512 -1.29328
151 0.0448525 1.4059 6.16807
155 -2.10313 -1.57777 1.72762
167 1.36907 0.437307 2.70004
169 -1.83488 1.47347 0.293376
171 -0.0897338 -0.276558 1.31026
154 -0.941987 -0.646623 -2.9802
168 -1.42126 -2.2233 -3.61259
170 -2.19062 2.06918 -0.0584857
172 0.00961399 -0.590114 -3.93958
215 0.947764 -0.905301 0.311038
219 -0.277613 1.33112 -0.488815
231 1.68689 -0.799002 -1.45133
233 4.44976 0.526377 -1.90594
235 -1.3969 0.0629257 1.1371
218 0.884944 1.15764 2.93775
232 -1.79099 1.96905 -0.936364
234 1.22004 -0.764009 -1.25712
236 -1.51699 -0.352639 -3.53219
279 1.99846 1.17306 1.6021
283 -1.99256 -0.301986 -2.45994
295 -0.904124 -0.322969 -0.46451
297 -3.18354 2.56902 0.297703
299 -1.88308 -0.825204 -0.85285
282 -6.74793 0.679204 2.82013
296 -0.419672 -2.24076 -1.68377
298 0.389848 -0.649022 -0.140299
300 -1.9155 -0.688289 -0.365546
343 5.58419 -2.18723 0.420596
347 -2.74836 -0.723149 -1.86764
359 0.141216 -1.23682 0.657744
361 4.98212 0.698982 3.18776
363 -2.41943 -2.29291 2.6626
346 0.0482696 -0.0338883 0.772267
360 1.50077 1.10758 1.71082
362 0.0718814 -1.49777 2.07754
364 -3.19695 1.25127 -1.03454
407 0.112897 -3.83009 0.10648
411 1.5922 -1.1163 -0.223009
423 -3.33149 1.85533 -0.282988
425 1.22342 1.60821 1.44673
427 -0.268633 -0.891179 0.678605
410 0.654266 1.54067 -2.56096
424 -1.76902 0.233931 -0.697488
426 0.420479 2.91141 -0.456074
428 2.40683 -2.44345 -1.44857
471 -3.20261 2.44557 -1.1519
475 0.691618 -0.606473 0.463674
487 1.32243 2.90968 -0.789351
489 1.29377 -0.848002 1.00987
491 0.10259 -2.63251 -0.870625
474 -3.48626 2.71861 -0.0695867
488 -1.82679 -0.997876 -2.33831
490 0.585376 -2.43258 -1.52534
492 1.15554 -2.94579 1.9524
535 -1.21475 1.66004 0.658854
539 0.318373 -1.95841 1.10334
551 0.677297 -0.960858 -0.396059
553 3.44151 0.206318 0.199886
555 -2.37046 -4.00646 1.13362
538 -0.144352 -0.712052 -2.02572
552 2.51215 -2.65388 -2.27963
554 -1.18597 0.206209 0.92694
556 0.614381 -1.62773 1.79676
599 0.187234 -1.85689 2.36962
603 1.13651 2.01772 -3.53521
615 -1.84137 2.43897 -0.103648
617 2.96228 2.19765 1.01115
619 0.161534 -1.1449 -0.688996
602 3.20798 -0.996253 0.0872218
616 -0.0467693 2.27978 -3.86447
618 2.41547 0.934276 -1.4782
620 2.57853 0.0356966 -0.658413
663 -1.1185 -0.318027 -2.34115
667 -1.41752 -1.09515 -2.70666
679 1.54863 0.636257 -1.39201
681 3.22627 -1.37296 -0.810515
683 2.036 0.762863 -1.7155
666 -0.754383 -1.72311 2.24336
682 -1.23343 -3.54853 -3.0364
680 -3.3051 -0.554679 0.250717
684 -1.15628 -3.95531 2.91059
727 1.32579 0.956403 1.10835
730 0.980731 1.94588 -2.81432
731 3.12169 2.08174 0.238178
743 -0.13433 0.357734 -2.05797
744 1.88046 -1.02616 -2.98017
745 0.336257 -0.959801 0.456137
746 1.93463 3.31499 2.61215
747 -0.502778 -0.0984301 0.963521
748 0.492708 1.10991 2.583
73 -2.86577 0.666551 -1.53207
55 -0.311054 3.29566 1.03295
56 0.647859 3.91708 -1.90516
57 1.64133 0.428927 -0.405599
58 -0.684729 1.20456 2.81609
59 -0.85607 -4.3207 -1.02168
60 4.228 1.51268 0.67797
119 -0.212577 -1.56018 1.56334
123 -3.66692 -1.99679 -1.57363
76 -3.50406 -0.398354 0.583929
137 -2.29104 -0.625108 -2.25345
121 -2.91083 -0.661164 -1.90448
120 0.693983 0.0233939 2.73102
122 -0.618904 -0.49786 -3.71765
124 -0.916998 -4.4269 1.20822
183 -4.26991 -2.04889 1.73915
185 2.45757 5.63507 -2.64662
187 -3.13181 2.1049 -0.952263
136 0.876255 1.0655 -0.461425
140 -0.0626425 3.59321 -1.79251
201 -1.08545 -3.38894 -0.790573
184 -0.717957 -2.49247 -0.906645
186 -0.578846 -0.445919 0.972196
188 2.0474 -0.395842 -0.408552
247 2.06953 -2.62193 0.720512
249 1.02138 -1.95704 -2.14908
251 5.61859 0.780574 3.05562
265 -1.34006 2.4712 -0.66241
204 2.56468 1.71537 -0.72129
248 -1.23826 1.20688 1.36871
250 -1.93194 -0.930847 1.50376
252 2.64054 2.30182 0.565678
311 2.75029 -0.528881 -0.888963
313 1.72635 -0.175066 -0.841953
315 -4.4779 -1.12286 1.55632
268 -0.326144 0.41179 1.69224
329 2.78312 -1.42208 -1.41435
312 1.79812 0.0231885 2.93665
314 1.44954 3.967 -1.93452
316 -2.80786 -2.04301 -0.369946
375 2.36626 -3.66381 0.497729
377 1.52992 0.709445 1.74303
379 -1.70626 -2.95048 -0.509705
328 1.62014 1.22754 -0.594599
393 -2.14899 -1.45335 -2.26029
376 -2.87972 -0.178391 -2.42272
378 1.70041 0.127352 -0.0062551
380 -0.741138 1.08944 -1.93999
439 0.16782 -2.27193 -0.995475
441 1.38856 0.339358 4.50673
443 -1.65329 1.28585 -1.73491
396 1.58884 -6.20264 2.29759
392 -0.373756 -0.574039 -1.19552
440 -0.364099 1.01145 0.23892
442 -1.02503 0.471954 1.92702
444 1.18025 0.975771 1.10791
503 0.00971186 1.81846 -2.577
505 -0.459214 1.80974 -1.47843
507 3.0947 -0.37843 0.479688
504 1.26021 0.333578 -0.599639
506 0.335804 -2.05693 0.563224
508 -1.73878 0.460374 -0.507234
567 1.07371 -0.340107 -4.61144
569 -1.91309 1.37909 -1.21477
571 2.0181 0.127082 -1.1952
585 -0.546283 1.7708 -1.48157
568 2.77185 -1.56451 1.7597
570 -1.55753 -0.425424 0.812878
572 3.12614 -0.904174 1.08828
631 0.189208 2.53385 0.01995
633 -0.022967 -0.588524 3.20134
635 -0.453222 1.25803 1.45841
632 4.69174 -3.94584 -2.62073
634 0.223686 -0.752535 0.0878784
636 -1.10694 0.113918 0.311966
695 -1.61949 -0.800582 2.97447
697 -0.740322 -0.877957 -1.95961
699 0.653395 -0.390398 -0.944984
698 -0.234101 -3.35024 2.55634
700 2.84902 0.914027 0.5916
652 1.2158 -2.57345 -2.47414
696 -0.592243 -2.55072 -0.610391
716 -0.724725 0.981155 0.820627
759 0.79839 -4.38541 0.0846136
760 2.80953 -1.5976 -1.51191
761 2.964 0.00428639 -3.1767
762 0.473181 2.35549 -1.16409
763 2.98759 -1.97546 -1.89649
764 -0.395975 -2.96489 1.06264
17 -0.285168 1.4306 1.66746
2 -1.70409 0.267799 0.453261
14 -2.32671 1.46108 2.54733
15 0.884286 3.26819 2.15413
29 -3.46711 -1.28487 -2.62239
32 -4.46884 1.53571 0.144089
16 -2.05048 -2.53999 2.08719
79 -4.03339 -1.87529 1.67126
93 -1.54952 0.629965 0.57007
81 -1.2384 1.79859 0.174691
78 3.13962 0.587064 -1.3751
96 -1.08641 3.42266 -0.0779864
143 -3.4524 -1.04605 4.65819
157 -3.20948 2.2612 -1.88706
141 0.337695 -0.850925 -0.392151
80 -3.43167 -1.56102 0.145756
142 0.397047 -4.37535 -1.3175
160 -1.32703 -2.1345 -1.52188
207 0.0148437 1.80659 3.30932
221 -3.18913 -0.0492193 0.310458
257 -1.29178 0.548516 -0.59403
206 -0.162711 -0.499589 0.517793
224 1.79507 -3.02177 4.10169
271 -0.761047 1.28423 -0.47238
285 -4.43929 0.899987 -0.0208104
337 2.8102 -2.78507 -0.71945
270 -2.39098 -2.09843 2.24889
288 2.90909 0.425327 -1.64577
335 -2.37202 -2.82662 -1.74336
349 -1.52422 -0.278421 -0.877498
401 -0.625304 -1.61533 -0.757517
385 -0.640572 0.124551 -0.539988
334 -0.437464 0.737152 0.156614
352 1.52931 -1.54349 3.88407
399 -0.0463492 -2.39941 3.37887
413 0.954334 1.27779 -3.54735
386 0.178701 3.72879 0.435018
465 -0.845451 0.372046 -0.118429
398 2.66876 -0.480164 1.06264
416 0.628985 -3.35384 1.38304
463 1.25584 -2.08141 0.217654
477 -2.57961 1.56209 -0.32471
400 1.13186 -2.17141 -2.26665
450 0.1488 -0.699116 5.68458
462 4.58276 -0.977474 -2.88908
480 -1.98034 0.83977 -0.678218
527 1.98429 2.72476 -1.70635
541 -0.0156133 2.42716 -1.45883
525 -1.57579 2.13749 -0.845296
514 -0.10371 -0.689673 2.9767
526 1.17681 1.05631 1.49404
544 0.584707 2.0069 -2.37396
591 1.86505 0.28406 2.22081
605 0.24492 2.07505 -3.29695
589 -1.18619 0.529992 -0.707621
578 -0.483579 -1.96255 -0.813127
657 1.37819 1.82071 1.00972
590 1.81778 2.87289 0.508942
608 -0.585784 0.759447 1.1467
655 -1.20358 -3.1518 0.6813
669 -0.35831 -0.0506546 -1.5636
654 -2.00542 0.724014 -0.979015
653 -2.60283 -1.08098 -0.57872
592 0.485575 1.51998 1.36812
721 -3.92992 1.42574 1.79271
706 -1.68877 -0.65002 -1.19239
672 3.5896 3.37366 0.803363
718 3.50507 -1.88668 -1.96535
719 -1.46056 -2.00381 -2.18035
733 2.20501 0.748844 -5.05809
736 1.11136 -4.37788 0.643275
656 -0.738611 0.810087 0.410073
18 2.34368 -0.924062 2.18944
30 -1.16886 0.636455 -2.70027
31 0.504491 -3.01004 0.936057
45 0.954145 0.628556 1.47072
46 -4.53272 0.775407 0.302477
47 -1.57767 1.95111 -0.186333
48 -0.583838 -1.9491 -0.273854
95 -3.35915 0.463384 1.50826
109 -2.05036 -0.768246 -1.9443
111 -4.54937 -2.28066 -0.687693
98 -0.215608 2.67498 1.06715
94 -2.09116 2.47083 -1.84632
110 -4.30793 1.80962 0.91481
112 2.69099 0.465297 1.80178
159 -3.12254 3.38876 1.92385
173 -3.99125 2.41469 2.61138
175 -3.12103 1.85406 0.667317
158 -0.199216 2.33368 -2.3985
174 0.063425 -0.710484 -0.21058
176 0.551814 -0.139579 1.58994
223 0.784055 -1.20104 1.07509
237 1.73886 2.361 -0.178421
239 4.61797 -0.50598 0.105881
222 -3.59801 -0.609742 -0.80802
238 -1.57619 3.33002 1.42545
240 1.74046 -1.44262 1.45427
287 -2.58783 1.81721 -3.94175
301 -0.173356 1.22739 1.61682
303 -0.508068 0.686681 1.10083
274 -1.08533 -2.69812 -5.17498
286 1.61802 3.95177 2.84556
302 -2.44116 -0.625982 3.96092
304 1.55933 -1.71168 -1.2313
351 1.80151 0.721636 2.20834
365 0.714897 -2.98435 1.10714
367 -1.46477 -1.19396 1.52816
354 -1.68052 2.38773 -2.63519
350 1.11726 3.06547 -0.959367
366 -2.77521 2.69246 2.33978
368 1.84439 -2.42589 -0.819398
415 -5.11063 -0.656675 -2.73604
429 2.96333 -1.77918 -5.04366
431 2.62605 -0.360857 -0.527936
402 0.809709 -3.26678 0.83111
414 -1.9219 0.268973 -0.401596
430 -1.42783 -1.74282 3.21891
432 -0.492357 -3.43969 0.437671
481 -2.61099 2.24115 3.58377
479 3.0346 1.57479 6.17618
493 -0.0524525 0.0607656 3.21406
495 -3.46326 2.60526 2.1513
482 0.760007 0.667909 -1.06399
466 -0.904502 0.639627 -0.800064
478 2.88613 -0.286759 0.14218
494 2.6641 -1.46978 -1.66056
496 -2.34211 0.418268 -2.37934
543 -2.59555 2.12767 -1.92295
557 3.48721 0.923498 1.77291
559 0.667385 -0.82554 -2.44135
609 -2.18179 1.02794 1.06251
546 1.34737 3.88741 -0.430325
542 2.26868 0.525705 -1.29477
558 3.11455 -1.45067 1.88629
560 -0.0661126 0.348066 3.1043
607 -1.52669 0.434761 -0.793056
621 0.127094 0.642896 -0.881468
623 -1.4482 0.145955 -0.57179
610 1.97887 -0.399172 0.640031
594 -1.13594 2.56917 2.5289
606 -0.219271 -1.57707 -1.04169
622 1.00092 -4.08709 -0.330281
624 3.50167 -0.376093 -3.69374
671 2.26708 -0.0387329 -0.370042
685 1.05105 1.35079 0.227624
687 -4.01356 1.69249 2.43814
670 0.542625 -1.84382 -3.51739
686 2.02109 -4.20288 1.2732
658 2.02468 -1.05042 1.48625
688 1.5756 -1.32579 1.37853
737 -0.183681 -2.10495 2.46248
734 2.20155 -4.06576 1.78539
735 7.0768 1.62257 2.97846
749 -0.467332 2.61176 0.564084
750 -0.952251 -2.27203 3.49937
751 -2.09206 7.33946 1.47972
752 2.43651 -3.42667 1.82986
50 1.19784 1.44533 1.15292
49 -1.5415 2.21279 -0.159522
77 -1.48876 -0.34163 0.955161
13 -1.09538 2.80044 0.957741
65 -1.47591 3.07518 -0.700677
61 -2.47344 0.074295 0.602466
62 -1.04161 -3.29787 -2.21307
63 3.45309 -1.20054 1.22465
64 1.06044 -1.49888 3.76569
127 -1.1789 4.32721 2.14961
125 -0.786911 -1.31806 -0.526256
177 -0.165414 -0.112676 -0.0483294
126 -2.12589 -1.34492 0.556539
128 -1.73117 -2.12006 -2.50929
189 0.920872 0.780721 -1.75539
191 -3.13604 2.38186 -5.2524
144 1.45785 2.34454 -0.170827
205 0.179354 -1.85552 -1.4907
190 -1.57457 -1.22093 -0.42328
192 -2.23603 1.50947 -1.73934
253 -1.18612 2.87101 -1.99619
255 3.5597 0.899367 2.79494
269 -0.255479 -0.0917237 -4.175
208 -0.859234 1.89205 -3.94266
254 -1.05137 -2.40885 0.0278399
256 3.37264 0.382267 1.53564
317 -0.448118 -0.00876956 -0.00506123
319 1.23927 -1.01543 1.47674
272 -3.22611 0.0930436 -1.68177
333 1.04974 -1.89622 2.27732
369 0.866937 1.04902 -0.715244
318 -2.63421 1.06044 0.191429
320 -1.8697 -0.367782 -1.62466
381 0.184386 1.22696 -2.64139
383 -1.47844 0.764686 0.634326
336 -1.60517 -1.86533 1.48661
397 1.86296 -2.30385 0.684688
382 0.301337 -1.1229 -2.70711
384 1.35185 0.405102 2.8981
445 0.881605 -2.7455 -0.613725
447 2.89762 3.49712 1.28782
449 1.66432 1.89214 -2.70108
497 -2.96418 0.794235 1.7875
461 0.689828 0.146652 0.529036
446 -1.38552 -0.592154 -3.68091
448 1.38588 1.73356 -3.36905
509 0.48151 1.74575 2.21309
511 -2.04797 0.241545 2.40341
464 3.58714 2.61109 1.58354
498 -2.18021 -0.78167 4.0308
561 -0.764088 1.84936 0.342395
513 -0.915749 3.11173 -1.31039
510 3.26284 -0.344211 -2.71046
512 1.06913 0.11582 -0.370957
573 2.99638 -0.670573 3.90623
575 3.57106 0.296353 -0.907615
625 0.52501 0.340285 4.35638
528 1.68438 1.09206 -0.965742
574 2.43799 1.86688 1.60748
576 -1.92105 1.68986 0.279338
637 1.21349 -1.91701 -1.04359
639 4.04023 1.48393 2.08163
689 1.48654 -1.77558 -1.79456
626 5.6687 -0.76353 1.75187
638 0.93855 0.88342 -3.7949
640 -0.168971 0.440451 -0.376251
701 -2.64962 0.279324 0.600999
703 -0.812355 -1.57593 -1.06246
702 -0.555236 -1.68859 -1.75877
690 1.14225 2.10447 4.5347
753 0.856237 -3.81072 1.42646
720 2.39589 -0.217664 -1.8108
754 1.05301 0.853653 1.7084
704 1.15601 2.13215 -0.525537
717 -0.363763 -0.91716 -0.558317
765 -1.54103 -1.48509 -1.68601
766 -1.69378 -0.3263 1.28273
767 0.603412 1.09064 3.00537
768 0.936539 -4.95941 6.5018
ITEM: TIMESTEP
100
ITEM: NUMBER OF ATOMS
768
ITEM: BOX BOUNDS ss pp pp
-8.5597938615827340e-01 4.2373711854248000e+01
0.0000000000000000e+00 1.4440000000000000e+01
0.0000000000000000e+00 1.4440000000000000e+01
ITEM: ATOMS id vx vy vz
3 1.16019 -1.28464 -0.643261
6 -4.79915 -4.02484 0.752903
20 0.594701 -0.0607264 -0.373855
21 2.28269 -0.878966 -0.617675
67 1.83209 -1.3584 -1.06239
85 2.64562 -0.966181 3.33518
69 4.22746 -1.4493 -5.14433
70 0.811991 -0.701996 -1.02886
84 -1.83456 -3.14549 -1.15422
149 -2.8003 -0.329337 1.22614
131 3.84379 -2.09475 3.83839
133 0.489036 0.0330375 3.562
66 0.763748 0.808215 2.59778
129 0.934916 2.52645 -0.732386
68 3.63409 -0.825633 0.852838
145 4.47293 -1.48781 -0.173024
134 -0.12684 0.580419 -2.09752
148 0.408932 0.0251717 -1.51269
195 -4.4468 1.08186 -1.98151
213 2.29604 0.857467 1.00536
197 -1.0067 -0.0286173 -2.36787
130 -0.195773 -1.53929 1.73775
209 0.31448 0.0483544 0.450516
198 -1.19431 0.0421591 -3.29302
212 1.53991 1.34388 3.30113
259 -3.01975 -2.9693 -0.615193
277 0.336937 2.67786 -0.0719956
196 -1.54705 3.16056 2.33214
273 0.230257 -0.16603 -1.62353
194 2.74764 -0.685239 2.6641
262 0.53698 1.42446 -1.49373
276 -4.03084 5.25794 1.88409
323 3.65813 -0.0976237 0.109129
341 -0.255443 0.927562 -1.35638
258 -0.168463 -1.4134 -1.08942
260 -0.23967 -1.82115 -2.25766
326 -0.955664 -1.22538 1.20735
340 -2.82975 -3.29683 0.741761
387 2.94907 3.00471 1.78332
405 -1.87206 -1.3721 -1.71735
322 -2.37927 -0.641667 1.90452
389 -1.37753 2.7052 0.448525
390 1.19371 0.390389 -2.99023
404 -0.00131713 0.989433 -0.989332
451 1.37752 2.77254 -0.921851
469 -0.803141 -0.712584 1.34152
453 1.43257 -1.1003 2.96043
454 -0.325104 1.47096 -0.468307
468 0.474845 -0.0277073 1.96263
515 1.58596 -2.06873 -3.40719
533 0.300225 1.93862 -1.35054
517 1.22048 -0.331366 -2.2338
452 1.12317 2.19142 -4.02081
529 -0.56466 -3.02999 -0.713844
518 0.565522 2.0442 2.44029
532 4.87615 -0.277081 0.733671
579 0.314053 0.934867 0.0151744
597 0.669619 1.13412 0.552795
577 -3.52458 -1.82097 -2.39052
581 2.70249 2.80224 -2.66999
593 -4.89313 0.174582 -2.25038
582 -0.279289 1.27581 1.13547
596 1.85812 -0.783309 -0.657726
643 0.812272 3.04937 -0.324997
661 1.39779 -1.55457 1.9732
646 -2.17935 0.118635 0.151839
660 0.890862 -1.2441 0.734298
580 0.293264 -1.42881 0.391242
645 -4.52754 1.06721 -0.745564
644 -0.10612 1.0372 2.88714
642 -0.136951 0.487983 -0.0668444
641 1.46228 -0.516047 2.19751
707 -1.76722 0.888468 0.698818
710 -2.62446 3.24238 0.201013
724 0.880176 0.055467 -0.573199
725 -0.488944 -1.9737 -2.9067
705 -2.10698 -0.0365395 1.89217
709 -3.44369 0.371749 -0.0875408
19 1.62013 -1.17112 -4.87453
22 3.36161 0.186302 -0.682817
35 -0.474337 -3.28614 2.08214
36 2.91125 -4.37506 -0.502085
37 -0.195204 0.0846686 -0.339414
38 0.366004 2.32574 -2.43464
34 2.76488 -2.33552 -0.862436
83 0.396897 1.33456 -1.029
99 0.439131 -2.56548 0.471733
101 1.26005 -0.792303 -0.551638
97 1.14234 2.73693 1.51696
33 2.85494 -0.253433 1.11052
86 0.569316 -0.264127 -2.2445
100 -1.61992 3.18662 0.615504
102 0.000254353 -1.03224 -1.41612
147 6.3888 -2.6258 0.60007
163 2.31494 0.400407 -0.938064
165 -0.608072 -2.23693 -1.02188
82 -0.31747 3.96644 3.47898
161 1.43526 3.22041 1.08187
150 0.227309 0.63017 1.94126
164 0.325313 1.85583 1.27716
166 -0.257027 0.266568 -0.142089
211 -0.194108 -0.938308 -3.60208
227 -1.37046 1.4751 0.21049
229 2.30751 0.65084 -0.0716808
225 3.36199 -3.44619 1.45377
146 1.26058 -0.669751 -0.0431182
162 2.80348 -0.657779 1.49908
214 2.76891 1.47385 -1.59892
228 2.8959 0.506473 -0.254374
230 -3.46111 -0.29977 0.00217354
275 1.38914 0.319269 -3.7895
291 2.52603 -1.74212 -0.70785
293 0.0928248 -1.78912 -0.275846
210 1.67648 -3.57263 -2.23223
289 1.91771 -2.321 0.402949
226 1.33254 -3.10026 8.18233
278 1.31835 0.448086 -1.61765
292 1.46586 -2.19431 1.05816
294 -1.00993 3.31054 2.53424
339 -3.13242 2.6284 3.83014
355 0.289268 1.76539 1.9312
357 1.70914 -1.23352 -1.59669
290 2.92543 -0.314387 -0.896522
353 -0.780359 -0.669114 -0.0102002
342 -1.9913 4.43188 0.104219
356 -1.39322 1.64162 -0.59499
358 -2.41192 0.601897 -2.5898
403 -0.372016 0.616282 3.0372
419 -2.1752 -0.221116 -0.957081
421 -0.101991 1.07365 1.19656
417 0.060869 -1.38477 -2.15101
338 0.45162 2.57182 0.32035
406 2.6872 1.79868 1.33257
420 -1.03682 -1.21729 0.157738
422 -2.63856 -1.70601 1.66517
467 2.08912 -2.0449 -2.73882
483 0.185506 2.28669 -2.96825
485 -1.95896 -0.765273 -1.46457
418 -1.44861 -2.50025 -1.02308
470 -2.59862 2.07792 1.16274
484 0.033621 -0.24417 -2.47365
486 0.506146 -1.00842 0.568794
531 -0.726043 1.48821 -1.44491
547 -1.60351 0.128039 2.66427
549 2.17523 1.88744 -2.24003
545 1.42686 -0.822866 0.11169
534 0.879186 1.39491 -5.70309
548 0.0877457 0.337838 -2.18365
550 -1.2215 1.18864 -1.05208
595 -1.18556 -0.560998 1.831
611 -0.847656 0.547734 -1.92198
613 0.206364 0.854536 2.8706
530 -1.77242 0.832814 -0.894995
612 3.27044 2.07806 -1.0266
598 0.89166 2.07373 -0.153319
614 -0.277076 2.98525 -1.48839
659 1.10481 -1.62314 -2.89561
675 -0.831161 0.807131 -0.42017
677 -3.37325 0.101033 1.47517
662 -0.144078 0.86342 -1.18971
673 0.465599 1.94865 1.72007
676 -0.842578 1.56097 2.65802
678 -1.2773 -0.174306 0.814404
674 -2.75516 0.632734 3.5144
723 -2.71127 -2.64292 -2.008
726 -1.5152 -1.0642 0.825097
739 0.880353 -2.26808 2.3557
740 -1.27393 0.650619 0.326793
741 0.75201 -0.796169 0.594802
742 -0.688759 0.814396 2.1209
738 -0.417695 -1.51952 0.309917
722 -1.87958 1.02188 0.718805
4 1.30163 -1.6277 -1.73542
5 -1.09533 -1.28703 -0.419309
1 0.482847 -2.71809 2.27404
51 0.875012 -2.67816 1.07401
52 5.94492 0.657965 -0.146093
53 -3.31861 0.780881 -3.65842
54 -0.204342 -3.45152 1.48822
117 0.685599 1.38408 -1.90322
113 3.35799 3.94961 -0.00226615
115 -0.765365 0.0588409 -0.478988
116 -2.77576 1.29169 0.551571
118 2.22634 -1.16928 -1.14722
179 1.72926 -2.1891 -2.72906
181 1.29512 1.09169 -0.330545
114 3.06337 1.6987 -1.45721
193 1.28765 -3.25012 -2.01989
132 1.02158 -1.69686 -0.0992876
180 0.598148 1.25831 -0.0228485
182 1.75086 -0.462464 0.350018
243 1.89026 2.14013 0.1287
245 -0.82606 0.555373 -0.664445
178 2.37467 1.27083 -1.70129
241 -2.82819 -0.0646012 -0.8012
261 -0.216471 -0.241505 -2.89435
244 -1.72931 -6.77899 -1.48081
246 -0.497039 -1.68341 -0.346418
307 -2.10339 1.21176 -2.44746
309 -0.562093 -0.781955 2.43115
242 -1.29694 -0.592576 -0.0775217
305 -2.08546 1.87721 -1.41026
321 -6.24587 0.585071 -0.128112
308 -0.791612 1.0157 1.00613
310 -2.70512 -3.85805 0.151057
325 -1.51386 -0.719949 2.3166
371 4.11582 1.69568 -0.0759746