LAMMPS data file via write_data, version 17 Apr 2024, timestep = 1000, units = metal

8000 atoms
2 atom types

-0.3377332826532401 69.16367557770415 xlo xhi
0 36.1 ylo yhi
0 36.1 zlo zhi

Masses

1 63.546
2 58.6934

Atoms # atomic

3 1 0.057436247372172074 1.749453176890112 1.7637621836790363 0 0 0
6 1 1.9352733146938585 1.6759039718648836 3.5566971662104025 0 0 0
44 1 1.879812380445679 3.6544421241625167 1.6290568275101593 0 0 0
45 1 0.3234769695570265 3.523380528352942 3.376366780103111 0 0 0
403 1 3.5482388689439865 1.6999917356671852 1.5553529549647531 0 0 0
445 1 3.686843320112287 3.45914629461571 3.457620001812524 0 0 0
406 1 5.442484415552141 1.7058976599868643 3.5186495349258777 0 0 0
444 1 5.453546017192015 3.4418663194919934 1.7774959540533535 0 0 0
803 1 7.213830247995415 1.5631960261772713 1.6619882220648832 0 0 0
845 1 7.2873918955368095 3.419513402498547 3.3587414782977616 0 0 0
806 1 9.152915458055828 1.7402487750020668 3.4321419341024093 0 0 0
844 1 9.152693495364895 3.5357356163025377 1.664177426166263 0 0 0
1203 1 10.786357538515214 1.7196004362998785 1.7697826398847714 0 0 0
1245 1 10.99970897989127 3.5538760936490865 3.4820045684281657 0 0 0
1244 1 12.640385607189678 3.4816139259271504 1.4646717901541195 0 0 0
1206 1 12.758151841097849 1.7135473919077389 3.4937212214718083 0 0 0
1603 1 14.508438694833464 1.871733536874075 1.6128282871509585 0 0 0
1606 1 16.443250284588075 1.6353773562707354 3.4628964087913214 0 0 0
1644 1 16.390836491431315 3.531841607795886 1.674967574264615 0 0 0
1645 1 14.443691467224468 3.5111041998666215 3.5481963715406586 0 0 0
2045 1 18.163062073079768 3.45615573439287 3.374465307796608 0 0 0
2003 1 18.252640786203806 1.73728258160352 1.606414192546089 0 0 0
2006 1 20.044028576370913 1.7688869455243037 3.5182463232498136 0 0 0
2044 1 19.971757489336174 3.3620569912586387 1.6608514114745292 0 0 0
2403 1 21.852944147255297 1.6330743073487408 1.6803457021163972 0 0 0
2445 1 21.72611261186777 3.550614138858485 3.453038437459086 0 0 0
2406 1 23.44047754373375 1.6786937909013917 3.585915956385315 0 0 0
2444 1 23.598648323540598 3.493018187896426 1.7608543554426432 0 0 0
2803 1 25.45858094189508 1.6913368937785667 1.5581255576241348 0 0 0
2845 1 25.424908346213357 3.432451164219968 3.490597704941786 0 0 0
2806 1 27.19534471604486 1.588811876069038 3.454423492410879 0 0 0
2844 1 27.151730502356077 3.550628230925261 1.5325798470257284 0 0 0
3203 1 28.90800977231857 1.7232322724608284 1.7203101684900488 0 0 0
3245 1 29.00644251223459 3.501769657630273 3.4779784576590362 0 0 0
3206 1 30.87921981187628 1.7017976738739595 3.3718919005776917 0 0 0
3244 1 30.872886338401614 3.311555742499071 1.4795841631453759 0 0 0
3603 1 32.73902586042448 1.714941764871576 1.5556470597840864 0 0 0
3645 1 32.69903884191751 3.451821454601771 3.470761132186587 0 0 0
3606 1 34.56449284279038 1.705796348417936 3.4654196616884287 0 0 0
3644 1 34.6093123872223 3.481065076671171 1.5478586646288748 0 0 0
4003 2 36.37919802844502 1.5867801756716717 1.5417865027952011 0 0 0
4045 2 36.40867957648652 3.4043584377389324 3.4648018370575477 0 0 0
4006 2 38.14570558324406 1.566443781080833 3.307415103143765 0 0 0
4044 2 38.066085392357394 3.29931286424892 1.545284323849323 0 0 0
4403 2 39.86256792170055 1.5478295131093793 1.6062883716445653 0 0 0
4445 2 39.72412183744187 3.4577448198198026 3.3833058709874813 0 0 0
4406 2 41.528792509221034 1.618844554083398 3.3095648232448296 0 0 0
4444 2 41.54275601017372 3.3706274262824647 1.6814365544411718 0 0 0
4803 2 43.39914702390657 1.7517539950798058 1.4801343706936385 0 0 0
4806 2 45.04245519718976 1.5274219109041787 3.330523349002312 0 0 0
4844 2 44.943115462856824 3.4422807097811705 1.5233328410757085 0 0 0
4845 2 43.27461722665461 3.3347057617124922 3.4366288509398153 0 0 0
5203 2 46.65717212814807 1.572169431067181 1.4355372200952194 0 0 0
5245 2 46.73541360127776 3.3861208075766918 3.2362459590627504 0 0 0
5206 2 48.38825354639036 1.5642796607701555 3.3271803766630597 0 0 0
5244 2 48.36054669864103 3.3876723735862075 1.5014298570773827 0 0 0
5603 2 49.969412043633106 1.600219681136069 1.4606831114771486 0 0 0
5645 2 50.09313389884082 3.2923214287008684 3.3347916169449205 0 0 0
5644 2 51.87054510317456 3.2739595873091267 1.6121528286217628 0 0 0
5606 2 51.790781166768134 1.5371895769409625 3.384961784351379 0 0 0
6003 2 53.60735388095432 1.5233207840284544 1.463291374308036 0 0 0
6045 2 53.56822225035374 3.3294645919886854 3.2313646594380785 0 0 0
6006 2 55.176448532838954 1.5060633386789732 3.300124882325975 0 0 0
6044 2 55.20452072612797 3.366408888827842 1.4889288842330732 0 0 0
6403 2 56.99084548143609 1.6166670103875587 1.462840428081651 0 0 0
6406 2 58.595773783694824 1.5790203438428496 3.3089571133920628 0 0 0
6444 2 58.60513679430587 3.4305783587948144 1.6089749232396207 0 0 0
6445 2 56.78287847965236 3.2807460203769367 3.368379912669168 0 0 0
6845 2 60.40111527631755 3.3778631519208533 3.320207785446224 0 0 0
6803 2 60.390319574101845 1.6639878727696569 1.6413525484922171 0 0 0
6806 2 62.152631039337166 1.7208670042599985 3.28259545393404 0 0 0
6844 2 62.200160933239914 3.4135023482998395 1.4360207767506097 0 0 0
7203 2 63.886696434302024 1.6327132488926812 1.3651657901865717 0 0 0
7245 2 63.805717584754966 3.395676068949131 3.245649727867262 0 0 0
7206 2 65.59765151308497 1.5969997228966648 3.2530192109700495 0 0 0
7244 2 65.56830216998605 3.4646231355147608 1.502376674058301 0 0 0
7603 2 67.18694024280738 1.470377205507694 1.5581961671124214 0 0 0
7606 2 68.91887545543116 1.4724707008818578 3.3722964425794424 0 0 0
7644 2 68.9347661241005 3.3353996060529334 1.5618333316325916 0 0 0
7645 2 67.21145636870499 3.3723901734440407 3.3003928370150812 0 0 0
43 1 -0.09561856332834182 5.245404268400001 1.6222686466782643 0 0 0
46 1 2.0696474131905287 5.3891186580398385 3.5601762095262357 0 0 0
84 1 1.7604940529858604 7.014091104117628 1.5792515493029582 0 0 0
85 1 0.11769732281977435 7.033607994750142 3.469986935438046 0 0 0
443 1 3.659614305442632 5.283924802777434 1.454778609006423 0 0 0
485 1 3.6953034840580514 7.224772692927784 3.2442725756144974 0 0 0
86 1 1.9044408411714626 9.013063834354746 3.2546799091983694 0 0 0
483 1 3.642300803751614 8.95626713592975 1.458618076758311 0 0 0
83 1 -0.03597160299385891 8.744923449113012 1.5551531503784803 0 0 0
446 1 5.486709537492561 5.363681703274084 3.3176892190152483 0 0 0
484 1 5.497665562141661 7.004932435319704 1.5809349677005013 0 0 0
843 1 7.355275133220153 5.3173592819105195 1.58347835483282 0 0 0
885 1 7.240314550018641 7.210333101853436 3.362705175582493 0 0 0
883 1 7.312696916282088 9.047718454220357 1.4961716392305333 0 0 0
486 1 5.5258439892134685 8.876666863124179 3.4713730367239677 0 0 0
846 1 9.112017048837773 5.425025304574609 3.3399246881699174 0 0 0
884 1 9.054968926472373 7.0792188314025335 1.518178052114955 0 0 0
1243 1 10.944635418715665 5.373867334382559 1.5921442422905534 0 0 0
1285 1 10.948648400103899 7.033090963480068 3.335327049868558 0 0 0
1283 1 10.964686770250829 8.83357642876878 1.5355932206259122 0 0 0
886 1 9.082342845664941 8.87821749050239 3.2428694753156697 0 0 0
1246 1 12.744416854007088 5.367826620885296 3.242721633351359 0 0 0
1286 1 12.772419293296371 8.835572310196513 3.475127934945472 0 0 0
1284 1 12.767043303993209 7.105144174251148 1.4596512846542151 0 0 0
1643 1 14.52044558432086 5.392933600843034 1.4972169770053716 0 0 0
1646 1 16.396588169477575 5.257347107439258 3.3006982981022435 0 0 0
1684 1 16.445512164651355 7.154935561629501 1.5577839689518214 0 0 0
1685 1 14.6118423135646 7.060356158536061 3.2864002697393078 0 0 0
1683 1 14.595794652871852 8.74078720059731 1.5067029303600954 0 0 0
1686 1 16.45450649485942 8.78351763133919 3.482632504761087 0 0 0
2043 1 18.171169287088276 5.332793791752031 1.6249918087804631 0 0 0
2085 1 18.13562287130419 7.047605659350028 3.4519087939065103 0 0 0
2083 1 18.14053874047209 8.87330291589817 1.573344598475645 0 0 0
2046 1 20.087306936396793 5.318660561492651 3.3848360875065993 0 0 0
2084 1 20.07713089859325 7.051468852450848 1.6516437187528763 0 0 0
2086 1 19.976861837601717 8.820296631119845 3.418786672294782 0 0 0
2042 1 19.988877703938563 5.246543567835485 35.990290454506926 0 0 -1
2443 1 21.843103819118607 5.3452913331797 1.7198834995386485 0 0 0
2485 1 21.82671633619668 7.006002788502005 3.55169159644788 0 0 0
2483 1 21.834942646252497 8.802492008486418 1.5575519665821174 0 0 0
2446 1 23.61491026368065 5.269347654017249 3.474036218095508 0 0 0
2484 1 23.64723520573493 7.155429293979649 1.6348489010963174 0 0 0
2486 1 23.52314127959226 8.732809134223674 3.413890961948144 0 0 0
2883 1 25.414909492870382 8.88153205912535 1.6696490394561938 0 0 0
2843 1 25.383911469222404 5.253445831176648 1.6290405116928433 0 0 0
2885 1 25.45055185122798 6.996778763401267 3.5452713961741846 0 0 0
2886 1 27.312467078458827 8.746963100851367 3.4516707902093655 0 0 0
2846 1 27.30617936139216 5.279267243593445 3.3509253848599143 0 0 0
2884 1 27.213891430025125 7.022499148369661 1.522518178047235 0 0 0
3243 1 29.023326919374945 5.237210968091749 1.601939021187101 0 0 0
3285 1 29.164910663663232 6.9476418540028 3.5129145886825284 0 0 0
3283 1 29.120465211319992 8.82556334309039 1.738289510711429 0 0 0
3246 1 30.944476982218287 5.2032582483137615 3.501333410335889 0 0 0
3284 1 30.829937538653557 7.032676068197956 1.6217307741635525 0 0 0
3286 1 30.958677440032496 8.758570713131666 3.3521826328674935 0 0 0
3643 1 32.685699194927146 5.127499000918636 1.5670011955935776 0 0 0
3685 1 32.63751406271288 6.892361103615276 3.3567775417813586 0 0 0
3683 1 32.811615460563445 8.685584760568883 1.6191625379147374 0 0 0
3646 1 34.72344942181421 5.088677336475133 3.39777276321446 0 0 0
3684 1 34.58453963276856 6.8566911574669644 1.6407911618551978 0 0 0
4043 2 36.50473273044507 5.172855093698281 1.5019817736567087 0 0 0
4083 2 36.48158123056337 8.642994637525835 1.4605927411468833 0 0 0
4085 2 36.423249173360844 6.973608926430212 3.2376653958243238 0 0 0
3686 1 34.624584697851034 8.680543807048814 3.294444654139696 0 0 0
4046 2 38.03265516580534 5.190009454297398 3.4570043528083954 0 0 0
4084 2 38.3553024169069 6.8778027180529175 1.5452163680824367 0 0 0
4086 2 38.176424072723734 8.712502344419422 3.333925155116852 0 0 0
4443 2 39.75961073261122 5.022640024087953 1.575496997173146 0 0 0
4483 2 39.865967365814654 8.746270754409256 1.5913210097753723 0 0 0
4485 2 39.90026795037253 6.842875918196473 3.3344661319239743 0 0 0
4446 2 41.52053965288494 5.0291629759134056 3.4006824208030086 0 0 0
4484 2 41.641556569827976 6.990565128458215 1.4553103761159016 0 0 0
4486 2 41.606367691947234 8.772324375454811 3.4056942009343154 0 0 0
4843 2 43.2830406675918 5.320822809878723 1.6093764150187957 0 0 0
4846 2 45.11825111725532 5.246437334430551 3.4553351165029045 0 0 0
4883 2 43.38869493172729 8.621654443897675 1.5166904593914772 0 0 0
4884 2 45.037793616497225 6.988914902103049 1.6843470167701013 0 0 0
4885 2 43.20565134187081 7.014131838213198 3.422637674434981 0 0 0
4886 2 45.04367715393659 8.698853949812692 3.541103334493279 0 0 0
5243 2 46.76358258422544 5.127400228262529 1.4763220233921734 0 0 0
5285 2 46.800708925773755 6.922483739853371 3.382804788977549 0 0 0
5246 2 48.45966684800912 5.141014799514516 3.3085147229740777 0 0 0
5284 2 48.35799347479213 6.90721715599793 1.3818638076307925 0 0 0
5286 2 48.22503115253874 8.732046227139701 3.287596128178745 0 0 0
5643 2 50.091563350582724 5.14903720272795 1.4880987895650182 0 0 0
5683 2 49.95906680752979 8.656702222939428 1.4476621512305037 0 0 0
5685 2 49.95204253007882 6.987153995910042 3.2588491473282564 0 0 0
5646 2 51.787911698091854 5.198124636806302 3.3653465463067684 0 0 0
5684 2 51.757030231342775 6.856737914005046 1.4549676821191946 0 0 0
5686 2 51.734070390780204 8.761765965281693 3.267072067807313 0 0 0
6043 2 53.48037891463226 5.283349451347074 1.5731460553761722 0 0 0
6083 2 53.449182181777196 8.819761134985132 1.424576765647919 0 0 0
6085 2 53.508723606254215 7.050125150986186 3.3572385238930793 0 0 0
6046 2 55.19906757542525 5.1166878296025144 3.3284851545519225 0 0 0
6086 2 55.251007907594165 8.781758548668325 3.341219952525864 0 0 0
6084 2 55.15029001465143 7.088659685516932 1.567638864123757 0 0 0
6443 2 56.939421318025786 5.231373309908911 1.5841645093526047 0 0 0
6446 2 58.63152201733946 5.222310492131336 3.364492954824666 0 0 0
6483 2 56.80881879836259 8.911179908463739 1.447430084931776 0 0 0
6484 2 58.58886980538961 6.974316609524057 1.4303812749061808 0 0 0
6485 2 56.89631674800457 6.997257841831269 3.2322044091781104 0 0 0
6486 2 58.57280252157068 8.784348983979804 3.3512560548002073 0 0 0
6843 2 60.369170927683996 5.267749433733279 1.5836030876211789 0 0 0
6885 2 60.28255164756104 7.095261445148473 3.337587332652969 0 0 0
6846 2 62.10763876848185 5.077412362562254 3.360432436782037 0 0 0
6884 2 62.06712491252131 6.953317608077243 1.584029816553026 0 0 0
6886 2 62.08268474066852 8.751166406528897 3.2434876491151057 0 0 0
7243 2 63.84226112700045 5.147139523523878 1.5039130598829202 0 0 0
7283 2 63.88086728984159 8.670900182690442 1.4024215122294097 0 0 0
7285 2 63.92536697064525 6.891556984426143 3.343716863629919 0 0 0
6883 2 60.32319093641279 8.78369332907557 1.476020193900396 0 0 0
7246 2 65.58702726411123 5.196351257100399 3.2880789678927895 0 0 0
7284 2 65.58486491652344 6.939394047151529 1.4193343973860808 0 0 0
7643 2 67.24882511699852 5.258220939914125 1.5186578122220422 0 0 0
7646 2 68.93423741693702 5.204771797352434 3.400503757146736 0 0 0
7683 2 67.2988304285886 8.767877124089837 1.5955442891883407 0 0 0
7684 2 69.04087663850375 6.885958165603811 1.6126881580510601 0 0 0
7685 2 67.27611764087102 6.939996695976766 3.346217256947028 0 0 0
7686 2 68.96338275288755 8.696246222968144 3.490116263874568 0 0 0
7286 2 65.48904710257126 8.774937530382704 3.287809150763449 0 0 0
123 1 -0.00648657824350473 12.508074906179928 1.6287563745190194 0 0 0
124 1 1.729432892064183 10.699901290565574 1.4954020115655917 0 0 0
125 1 -0.0479394731771161 10.885540086933291 3.507390708713522 0 0 0
126 1 1.8279639927210531 12.40619670059095 3.324948059601802 0 0 0
523 1 3.634405561168928 12.395881915869403 1.5275418363730344 0 0 0
525 1 3.7524549281469017 10.591132325918512 3.4637648246650388 0 0 0
524 1 5.4734717712010355 10.790978951950976 1.5748142197851676 0 0 0
526 1 5.403501098596704 12.461157425272829 3.363257516381061 0 0 0
923 1 7.3180925522174505 12.582377157404387 1.5613513513593449 0 0 0
925 1 7.347505110450981 10.823603268299578 3.2344501430971486 0 0 0
924 1 9.240248765627316 10.669139519408242 1.4512977151618185 0 0 0
926 1 9.18488477980613 12.496003872434352 3.2901927612651685 0 0 0
1323 1 10.972971927934397 12.495734520643397 1.5331983738814583 0 0 0
1325 1 10.962307322908844 10.640471347017183 3.2335451668936264 0 0 0
1326 1 12.853197099324376 12.491013991799706 3.4245716247807283 0 0 0
1324 1 12.888209923291814 10.620141490666088 1.5098274314381523 0 0 0
1723 1 14.633422874351114 12.509105610717143 1.484055154351188 0 0 0
1724 1 16.247997493693887 10.55003300782242 1.5902948373060355 0 0 0
1725 1 14.640254593067315 10.706915425384203 3.456878650620208 0 0 0
1726 1 16.294030894249182 12.416501165958872 3.4122883178130357 0 0 0
2123 1 18.234352901195393 12.364560046136233 1.651461378800883 0 0 0
2125 1 18.074455090895476 10.677170609567451 3.5626620603222636 0 0 0
2124 1 20.014003768714236 10.595774062076842 1.6441039470507306 0 0 0
2126 1 19.975752397550735 12.517083234319442 3.4756929379194252 0 0 0
2523 1 21.804995357917534 12.48618907573444 1.588264273148428 0 0 0
2525 1 21.849115429852628 10.631816563187098 3.4094561798022687 0 0 0
2524 1 23.63416277560892 10.671722733428473 1.5996404661248025 0 0 0
2526 1 23.595133868962805 12.374531318582983 3.4930812212186866 0 0 0
2923 1 25.41702340098483 12.431244522426677 1.6270970445996846 0 0 0
2925 1 25.50286506312709 10.55069034818159 3.415458118223058 0 0 0
2924 1 27.251798695382536 10.439607833893687 1.648050436114288 0 0 0
2926 1 27.345292205076287 12.331707788514695 3.350659240340357 0 0 0
3323 1 29.219030768628038 12.263159097509769 1.6990498692318456 0 0 0
3325 1 29.16966511055012 10.476442788477238 3.5482560942838886 0 0 0
3324 1 31.101320866809015 10.459362562761973 1.4857189222335254 0 0 0
3326 1 30.902048109053336 12.249032867865582 3.485725629415247 0 0 0
3723 1 32.78526724052277 12.252127903877291 1.5839003893833816 0 0 0
3725 1 32.878272964338265 10.648352458302917 3.383863784910235 0 0 0
3724 1 34.73964829864491 10.444309760093816 1.6844090008541277 0 0 0
3726 1 34.693895108418815 12.346398179650901 3.414137492034457 0 0 0
4123 2 36.371383043300675 12.36398761010345 1.5402203535754604 0 0 0
4125 2 36.4085388575854 10.628757261123452 3.4895249988786565 0 0 0
4124 2 38.090187584588165 10.468547243894594 1.5154427565149582 0 0 0
4126 2 38.23611492844981 12.366939021128992 3.2031369808354686 0 0 0
4523 2 39.94341934502065 12.309070831360271 1.596772069640731 0 0 0
4525 2 39.89545683789702 10.54066772087443 3.3885991863938294 0 0 0
4524 2 41.58244740314226 10.429144375278492 1.4387148333975293 0 0 0
4526 2 41.73229884994652 12.278070831563832 3.347516513618327 0 0 0
5283 2 46.52984934464576 8.747700500396308 1.5757230845315997 0 0 0
4923 2 43.19685679739925 12.418765780720411 1.4674182795984032 0 0 0
4924 2 44.95756797559286 10.621755823739456 1.6025158359641227 0 0 0
4925 2 43.33012466915475 10.523995368395864 3.3702277499389846 0 0 0
4926 2 44.892019758087606 12.415814569020613 3.339550384185212 0 0 0
5323 2 46.713170265539596 12.406388725622717 1.539728307842879 0 0 0
5325 2 46.584345826615845 10.654006212734187 3.3920814884445143 0 0 0
5324 2 48.46223785613785 10.5921594923001 1.4907587433155236 0 0 0
5326 2 48.2643722503722 12.42021343167446 3.33392854891781 0 0 0
5723 2 50.11647953312678 12.457371847344433 1.478029599457037 0 0 0
5725 2 50.0039387017687 10.598653813893216 3.2961705495866576 0 0 0
5724 2 51.67646671690447 10.51044335652987 1.6140660590431488 0 0 0
5726 2 51.82244557233332 12.30771988163651 3.3581997510756723 0 0 0
6123 2 53.53997261729693 12.270916642528372 1.4982035591524643 0 0 0
6125 2 53.54399734784835 10.494324846651224 3.3091465245124163 0 0 0
6124 2 55.261222421489684 10.604988336798172 1.4754747752567874 0 0 0
6126 2 55.111055765434166 12.404677080844618 3.3428228108047215 0 0 0
6523 2 56.85735134891933 12.477058045242067 1.4734565681251441 0 0 0
6524 2 58.534140841131794 10.620710101967717 1.488319190840229 0 0 0
6525 2 56.8414512422624 10.681648625400966 3.3445851083313447 0 0 0
6526 2 58.58873883326337 12.335286178663974 3.1579888143493307 0 0 0
6923 2 60.386915202697594 12.319373348193364 1.3929666719983218 0 0 0
6925 2 60.28322243537604 10.594432286261394 3.2714540565394787 0 0 0
6924 2 62.10870412311812 10.544532522604934 1.4976087763527592 0 0 0
6926 2 61.98460651496223 12.335588928657023 3.3482562038931256 0 0 0
7323 2 63.700107892744285 12.412031377715026 1.5106721900572264 0 0 0
7325 2 63.735240185355416 10.496763911334599 3.215175245043678 0 0 0
7324 2 65.46901197950041 10.522920210506852 1.4592556823837926 0 0 0
7326 2 65.57232478387736 12.339616599716482 3.2759410381717218 0 0 0
7723 2 67.29860387818766 12.248893528519314 1.5969827520799158 0 0 0
7724 2 69.02948815909365 10.606073874575904 1.6115027570796927 0 0 0
7725 2 67.23842985181044 10.46337541793253 3.405269912097453 0 0 0
7726 2 69.00438484710648 12.194938813991026 3.375343010502178 0 0 0
163 1 -0.0053664369122160965 16.057577515183258 1.687584560490127 0 0 0
164 1 1.8142036950145601 14.279634445088382 1.6429251018165543 0 0 0
165 1 -0.022161028409695433 14.387877209548343 3.426783414309133 0 0 0
166 1 1.7700502477865834 16.062168050790948 3.4606072121402787 0 0 0
563 1 3.59248039690369 16.057261408237828 1.6404064164193113 0 0 0
565 1 3.5713780891720805 14.250778202878731 3.570340086919134 0 0 0
204 1 1.8976076376530804 17.88345780665568 1.7231184733209786 0 0 0
205 1 0.16426510708290984 17.933522234645483 3.512746768017148 0 0 0
605 1 3.672055508577964 17.765509740004433 3.5683478496055 0 0 0
564 1 5.425956238484727 14.31846715326089 1.5841900766910304 0 0 0
566 1 5.372972003562335 16.02679802450634 3.371980264947463 0 0 0
963 1 7.308149634949118 16.052309084841053 1.6811735209369159 0 0 0
965 1 7.264565164014986 14.238491611027085 3.4079914879204423 0 0 0
604 1 5.6068265464827665 17.83641418145068 1.671777172630867 0 0 0
1005 1 7.240463222637108 18.11231545237468 3.5738879242958776 0 0 0
964 1 9.07793442209556 14.395665116863727 1.60038939206567 0 0 0
966 1 9.171516929204445 15.973747243618515 3.3302876198264353 0 0 0
1363 1 11.080414546451559 16.221809443195372 1.5191009769071764 0 0 0
1365 1 11.03855800248346 14.389246921265151 3.440511178596289 0 0 0
1405 1 10.834613122419926 17.8600719836558 3.357455517455774 0 0 0
1004 1 9.103891160059908 18.059116688144186 1.5576815434925726 0 0 0
1404 1 12.914051464368802 17.99623047535425 1.7083023529951011 0 0 0
1366 1 12.817675308200307 16.263538415345778 3.4164519002859963 0 0 0
1364 1 12.792126332457059 14.240843995718414 1.6621172992476632 0 0 0
1763 1 14.696701152215786 15.981019831236257 1.6108784313935889 0 0 0
1764 1 16.3925330325285 14.118012009066426 1.5189537694787607 0 0 0
1765 1 14.593916493503576 14.422437517742107 3.372661336668561 0 0 0
1766 1 16.441354666154304 16.221919678042976 3.4471479641739116 0 0 0
1805 1 14.611856574072577 17.896102405454357 3.4775996367977213 0 0 0
1804 1 16.361423370169685 17.995704529459875 1.710789760147696 0 0 0
2163 1 18.173240342536957 15.970692282253136 1.6557992937927464 0 0 0
2165 1 18.109271243369715 14.313330031422003 3.4169329563704034 0 0 0
2164 1 20.127746286547932 14.306076487741498 1.7323908236074297 0 0 0
2166 1 20.03032050808163 16.130800521967743 3.461136988642279 0 0 0
2204 1 20.170064398023875 17.899345466848125 1.7209989843566984 0 0 0
2205 1 18.228817863317456 17.862926502375235 3.363972172914052 0 0 0
2563 1 21.88346882355816 16.187465904517165 1.6583680150358135 0 0 0
2565 1 21.910085071614308 14.250407276924289 3.495254726488316 0 0 0
2605 1 22.040169067832977 17.964456439674706 3.4561532328002835 0 0 0
2564 1 23.481074719352954 14.252184172873909 1.6182336236783907 0 0 0
2566 1 23.763731365759213 15.94360694131812 3.5151401999354572 0 0 0
2604 1 23.57405090838728 17.996266454706543 1.6483106097732048 0 0 0
2965 1 25.504529008359142 14.233948515210539 3.4058773748134894 0 0 0
2963 1 25.479883240310553 16.0845133131491 1.6572225992029492 0 0 0
3005 1 25.477212592098823 17.96341490522663 3.3534157516310663 0 0 0
2964 1 27.317065163905152 14.265828479303279 1.756462304112693 0 0 0
3004 1 27.331945682598775 17.821097796905217 1.7261229427375353 0 0 0
2966 1 27.409415924193617 16.10576583971144 3.568866830347453 0 0 0
3363 1 29.143112849032267 16.011158932284545 1.5894271244568392 0 0 0
3365 1 29.270714822939944 14.334415380722902 3.409979716639589 0 0 0
3405 1 29.193430190343115 17.887602270442496 3.42033493192827 0 0 0
3364 1 30.987300972655103 14.03681726851349 1.5739953660603443 0 0 0
3366 1 30.964947035902803 16.04061427542791 3.2680316602918387 0 0 0
3404 1 30.736324258696428 17.88454347583334 1.5216312664876557 0 0 0
3763 1 32.68272974029423 16.05390713169359 1.4093271598248638 0 0 0
3765 1 32.704306210013 13.928843119995575 3.208368402876079 0 0 0
3805 1 32.82148630578645 17.722468319959823 3.3162808778077975 0 0 0
3764 1 34.7061480014106 14.163958831723587 1.5522308756198804 0 0 0
3766 1 34.569489511817316 15.861347701772559 3.293484177666661 0 0 0
4163 2 36.50170020431138 16.01868824435136 1.4286709009006169 0 0 0
4165 2 36.46451573290611 14.24344633725763 3.342845347298806 0 0 0
4205 2 36.528048928789254 17.792935927923683 3.3017106554455995 0 0 0
3804 1 34.6841201652077 17.804599156741528 1.512188421731515 0 0 0
4164 2 38.04610319458585 14.050833437866848 1.5932668262690133 0 0 0
4166 2 38.1168447683538 15.92432726185849 3.2649057328006585 0 0 0
4204 2 38.19030964149569 17.853538350764783 1.4894369453361491 0 0 0
4563 2 39.75815569675324 15.929811546865658 1.5578240307802815 0 0 0
4565 2 39.96539639711308 14.141452230497336 3.312504999420313 0 0 0
4605 2 39.81470096035292 17.804170930840847 3.4571268958423156 0 0 0
4564 2 41.53399410566467 14.122273871771844 1.5187218391798818 0 0 0
4566 2 41.63348979440146 16.059462220804946 3.464391359487954 0 0 0
4604 2 41.43626622470272 17.65737345476639 1.5652907362145523 0 0 0
4963 2 43.14616830169023 15.832141677500243 1.566970962135167 0 0 0
4964 2 45.01390534084139 14.06340406586887 1.4568651091285305 0 0 0
4965 2 43.295220772757276 14.182618267694446 3.422399147245468 0 0 0
4966 2 44.8480060729408 16.045814872518953 3.244456131662069 0 0 0
5004 2 44.87020647148579 17.762874628969325 1.5636066627408578 0 0 0
5005 2 43.22857829974814 17.829693025336304 3.389357111657107 0 0 0
5363 2 46.53271012181781 16.011258683076765 1.5911746091411172 0 0 0
5365 2 46.52650475289971 14.142426079630777 3.4082632898949443 0 0 0
5405 2 46.71548200934354 17.74655380789586 3.304989664884435 0 0 0
5364 2 48.24712563215238 14.243835358906148 1.5828960232141907 0 0 0
5366 2 48.2937060495251 16.011664032793746 3.341806963236608 0 0 0
5404 2 48.36500274297814 17.724098625393257 1.4625733680461528 0 0 0
5763 2 50.08815087112461 15.939307384911919 1.5342218365028002 0 0 0
5765 2 50.02497062357442 14.21360968203044 3.3607021729814 0 0 0
5805 2 50.041101485947884 17.757866650742887 3.443994194698896 0 0 0
5764 2 51.754695085460824 14.163877305531374 1.6216166589170242 0 0 0
5766 2 51.74960893955979 16.02746045118092 3.426520323313687 0 0 0
5804 2 51.667777013687385 17.85166374430708 1.612296277758432 0 0 0
6163 2 53.434886461387926 16.016349966151243 1.6345479598940218 0 0 0
6165 2 53.41858013908251 14.15209192303434 3.314337627278303 0 0 0
6205 2 53.41866343571407 17.767572416742247 3.330586680922783 0 0 0
6164 2 55.09195226711457 14.266201874136662 1.5437770550352177 0 0 0
6166 2 55.24879949776017 15.943353115684625 3.2445862256385425 0 0 0
6204 2 55.25443300315636 17.835647875296758 1.5276373938774326 0 0 0
6563 2 56.821535017731826 15.957700282420944 1.4407425922644264 0 0 0
6564 2 58.59065577108497 14.138792083402773 1.5043738638285749 0 0 0
6565 2 56.98918617215191 14.284615851053168 3.387184750498027 0 0 0
6566 2 58.66500508759762 16.070597631492358 3.3348523775020475 0 0 0
6604 2 58.68919001390719 17.800748402204597 1.4395205620515916 0 0 0
6605 2 56.887781774328566 17.767177880127658 3.2355317930316536 0 0 0
6963 2 60.35771823150518 16.008985995662528 1.4947906392225503 0 0 0
7005 2 60.27806020753682 17.825892468326114 3.258458351327728 0 0 0
6965 2 60.36314746433023 14.192925810532017 3.131252368226034 0 0 0
6964 2 62.105498503300694 14.228353524179777 1.4260622626454473 0 0 0
6966 2 62.06028165141607 15.907847831104432 3.2779051128843717 0 0 0
7004 2 62.05661877800691 17.736263412367684 1.3822042490116435 0 0 0
7363 2 63.780853014730745 16.023778123695354 1.6301205493796525 0 0 0
7365 2 63.79290012479623 14.202306828464792 3.4060129410411646 0 0 0
7405 2 63.70752498492947 17.712026289609287 3.322588269481273 0 0 0
7364 2 65.41929223308907 14.177475972811742 1.616068934174777 0 0 0
7366 2 65.4515925622095 15.939078070688243 3.4482574218472624 0 0 0
7404 2 65.49300488123846 17.81622519647577 1.535677974181792 0 0 0
7763 2 67.0534259141797 16.008176632557884 1.6361976716773536 0 0 0
7764 2 68.9656283418469 14.064382912012519 1.6113860000278737 0 0 0
7765 2 67.29987021984645 14.159947921171817 3.3315579053096624 0 0 0
7766 2 68.92229665616973 15.943760727479582 3.3213036257931554 0 0 0
7804 2 68.8074259324941 17.719511749137418 1.7237572636189538 0 0 0
7805 2 67.1242182413724 17.82416373972008 3.3950622362524885 0 0 0
203 1 -0.08130650767802379 19.78099916783805 1.8879670653438498 0 0 0
206 1 1.8534926667641116 19.751726966413067 3.4637959752240333 0 0 0
244 1 1.615370981352485 21.583665269025822 1.7609267684974355 0 0 0
245 1 -0.17282498824990458 21.610115437487202 3.727998856576703 0 0 0
603 1 3.5349662253988208 19.5639207453385 1.795074347746003 0 0 0
645 1 3.581967178069417 21.6085506478401 3.5233515172282286 0 0 0
606 1 5.339614495688168 19.736412035507076 3.417969215486879 0 0 0
644 1 5.419664033371246 21.66160468777473 1.7238827605530538 0 0 0
1003 1 7.3647392055658605 19.715592679943466 1.6461408571571288 0 0 0
1045 1 7.122427379309112 21.488427835613688 3.6058975990188604 0 0 0
1006 1 9.109236191079631 19.74775950711519 3.508045242341136 0 0 0
1044 1 9.088853764814978 21.611751312379415 1.756581503887736 0 0 0
1403 1 10.922171862070751 19.63135628339748 1.672998437881036 0 0 0
1445 1 10.867520512105193 21.423971152931024 3.4360341030190447 0 0 0
1444 1 12.764821684736198 21.561563606985384 1.652154540021369 0 0 0
1406 1 12.703500471234523 19.745107133450205 3.56036711718073 0 0 0
1803 1 14.639069421952259 19.751940071072084 1.7291842682727017 0 0 0
1806 1 16.483125664410228 19.743217249446463 3.4209568870672844 0 0 0
1844 1 16.428598273710165 21.592435844983484 1.6197415565061037 0 0 0
1845 1 14.621036671277368 21.44914944809984 3.5181496160179764 0 0 0
2203 1 18.46967382191754 19.619784299872844 1.682018389415896 0 0 0
2245 1 18.298257501562603 21.642195867274303 3.6150636137774965 0 0 0
2206 1 19.963222669466514 19.81308778763615 3.5794548217993802 0 0 0
2244 1 19.915581679794702 21.617973059652027 1.7806426922097205 0 0 0
2603 1 21.764568057161522 19.796471754320777 1.7167162272465657 0 0 0
2645 1 21.8367228441837 21.532202484585756 3.4721332673744927 0 0 0
2606 1 23.675680737326477 19.821117819741545 3.4022680396673595 0 0 0
2644 1 23.652669373490944 21.526409892746287 1.6666314059066052 0 0 0
3045 1 25.56622819455256 21.577299547461653 3.3789028817465456 0 0 0
3003 1 25.67306161262975 19.728312001048376 1.5978711127609802 0 0 0
3006 1 27.27876008714041 19.702466262437053 3.5336569275808354 0 0 0
3044 1 27.383294665060273 21.558408907590657 1.679016548907327 0 0 0
3403 1 29.115093850189997 19.550580556400714 1.4951463790505282 0 0 0
3445 1 29.20827477725092 21.321925679933642 3.322505050721792 0 0 0