LAMMPS data file via write_data, version 17 Apr 2024, timestep = 1000, units = metal

768 atoms
1 atom types

-0.6650245187203617 42.278819267736196 xlo xhi
0 14.44 ylo yhi
0 14.44 zlo zhi

Masses

1 63.546

Atoms # atomic

3 1 -0.37987875235188834 1.7677796769039862 1.860229461591607 0 0 0
6 1 1.2974983254444703 1.8638646387626265 3.603238799342056 0 0 0
20 1 1.3885087327955563 3.6175419134519795 1.726200143785752 0 0 0
21 1 -0.4796550537923242 3.5368000338673835 3.531674473646422 0 0 0
67 1 3.1067645882534403 1.760072463174442 1.705529251234454 0 0 0
85 1 3.164548876745355 3.566595363166306 3.5613621693186808 0 0 0
69 1 3.0959932382769875 0.0008878441639516566 3.5227771231513842 0 0 0
70 1 4.959619274718736 1.8027334668585504 3.6653104464289257 0 0 0
84 1 5.056308070963036 3.566233277807741 1.9360025205522604 0 0 0
149 1 6.757996922549438 3.698507958314995 3.787587586880469 0 0 0
131 1 6.8600463384533965 1.7752341598714751 1.935190267740066 0 0 0
133 1 6.931936371843134 0.0028711445822827836 3.6175289595091513 0 0 0
66 1 5.000784163554748 1.8029618798376814 0.03222544184178554 0 0 0
129 1 6.84754852261403 0.04557743071742802 0.2112783394388659 0 0 0
68 1 5.020529516119173 0.0341240431310692 1.7729480073895358 0 0 0
145 1 6.834633659608337 3.5501540056919465 0.02993211008916936 0 0 0
134 1 8.65143090066938 1.793937610224218 3.6079436651074155 0 0 0
148 1 8.623425302009368 3.4922782498577485 1.733884278851069 0 0 0
195 1 10.574681495762892 1.6593272994222652 1.9141775938787302 0 0 0
213 1 10.526316769704723 3.468042742212906 3.6640175320752437 0 0 0
197 1 10.555036333820128 0.06103928991336897 3.646989571738106 0 0 0
130 1 8.676358784490567 1.7601738417161328 0.07451146502184261 0 0 0
209 1 10.606890390441452 3.502422450222712 0.09619672070169348 0 0 0
198 1 12.441753496838421 1.7898523150159658 3.7356834971706894 0 0 0
212 1 12.385095861736104 3.589196195678365 1.939082901247143 0 0 0
259 1 14.416264569695139 1.8935397478273457 1.8669487232364421 0 0 0
277 1 14.43535050468635 3.6143167099278197 3.649324969255772 0 0 0
196 1 12.502940475262232 0.08703294225870625 1.8224354767504687 0 0 0
273 1 14.257674523217174 3.6770852062243864 0.053432558027928886 0 0 0
194 1 12.451831085340654 1.7524775507906285 0.19485578567122003 0 0 0
262 1 16.386406672790756 1.8629736251009772 3.6877422816279184 0 0 0
276 1 16.18864547176999 3.6068762604130185 1.718483272453307 0 0 0
323 1 18.065271931528102 1.8080678580206162 1.8199724485311126 0 0 0
341 1 18.11985388961852 3.538752813632403 3.5191328059053486 0 0 0
258 1 16.29755405856283 1.8396690883407842 0.0024469181725255106 0 0 0
260 1 16.180553916797876 0.027050709050099757 1.8163001647468295 0 0 0
326 1 19.81107633209237 1.7948142921461263 3.675669197321661 0 0 0
340 1 19.951691788474587 3.5478263818661104 1.745555717951602 0 0 0
387 1 21.61700931338707 1.7793460970083024 1.6150676741119794 0 0 0
405 1 21.575905871684594 3.4530258063410693 3.6109753428652285 0 0 0
322 1 19.868180864769975 1.710253890186424 0.0250537968472589 0 0 0
389 1 21.685465772815924 0.01654190374413851 3.424727103267552 0 0 0
390 1 23.552987789707668 1.7080371949550304 3.5915875998887747 0 0 0
404 1 23.467418791449386 3.52520465908318 1.847369060139879 0 0 0
451 1 25.398954792275976 1.8167790186312007 1.7441618558292546 0 0 0
469 1 25.30844422243396 3.5105631839032125 3.5596772125664007 0 0 0
453 1 25.364948478423077 0.02736093796863831 3.5803699427830002 0 0 0
454 1 27.23631224073698 1.8514002834088952 3.5898337646125844 0 0 0
468 1 27.162154399064438 3.5571649576790505 1.7306674469859122 0 0 0
515 1 29.103753133904107 1.866625002497247 1.736201774179559 0 0 0
533 1 29.036744724628836 3.678195275115895 3.5638745780855117 0 0 0
517 1 28.95289934902441 0.11056526361822311 3.596708542455206 0 0 0
452 1 27.06158269702205 0.1390145876657176 1.7373977776216636 0 0 0
529 1 29.087995165625358 3.587835697533045 0.0019430767125563396 0 0 0
518 1 30.94984908137787 1.7365784317303865 3.5301841565725156 0 0 0
532 1 30.858955752053497 3.6241864875340166 1.811033434847074 0 0 0
579 1 32.733193080979746 1.9179794147644469 1.6678901702585975 0 0 0
597 1 32.799305725731045 3.611420503820175 3.5935503865417995 0 0 0
577 1 32.850968538529536 0.007100596047294495 0.028659632358940836 0 0 0
581 1 32.82596624672652 0.0818604284413364 3.552744288895932 0 0 0
593 1 32.72473554339076 3.6448771590032987 0.003185929228499574 0 0 0
582 1 34.65880566719167 1.874009784436919 3.539106620786247 0 0 0
596 1 34.56707221396159 3.637648719889866 1.7660588763855263 0 0 0
643 1 36.38499991406109 2.0824719852380382 1.7964636769133118 0 0 0
661 1 36.50616373813858 3.5939471341935434 3.623642893048688 0 0 0
646 1 38.35286372925494 1.9394836048576078 3.534680479509416 0 0 0
660 1 38.3475949057747 3.6158599770140594 1.7876376562415888 0 0 0
580 1 34.70172968645862 0.12462306059667821 1.8881827358859458 0 0 0
645 1 36.50010725876393 0.046343443233506865 3.544610280678316 0 0 0
644 1 38.29697739383613 0.09659663701831582 1.82832658607256 0 0 0
642 1 38.29808000647267 1.8459809483673408 0.02704846474893805 0 0 0
641 1 36.41911847774841 0.13816600329494017 0.05691944058142967 0 0 0
707 1 40.18874535384682 1.8069811745557882 1.7907489172399522 0 0 0
710 1 41.92358953633105 1.909234438376533 3.5136675149138714 0 0 0
724 1 42.10187679036406 3.623312556945434 1.6471881022750792 0 0 0
725 1 40.18474660862688 3.594457540513963 3.61132951545491 0 0 0
705 1 40.12247062353729 0.048178843711644936 0.035330139385659126 0 0 0
709 1 40.06771259178152 0.14965767429820828 3.584034043050687 0 0 0
19 1 -0.6020541025408803 5.1967899970852 1.6845353159301724 0 0 0
22 1 1.2027536320930483 5.290559005710949 3.5235254167474865 0 0 0
35 1 -0.6204029958935701 8.912500179498986 1.708532105303014 0 0 0
36 1 1.2927077976294237 7.105119156018198 1.9259449376283118 0 0 0
37 1 -0.6524954444438605 6.997974313075236 3.5645158951599076 0 0 0
38 1 1.145272867690236 8.785594104599085 3.542460385645181 0 0 0
34 1 1.3111043240454492 9.023775498081879 0.047303326614991106 0 0 0
83 1 3.0750666521273695 5.4153290868118855 1.7242170015297213 0 0 0
99 1 3.1269329439765743 8.887638355118519 1.9617825936961555 0 0 0
101 1 3.149330421529672 7.084192557053573 3.663242432138303 0 0 0
97 1 3.214302978993191 7.269977927057582 0.10025331287799576 0 0 0
33 1 -0.5532043866107771 7.351656022750945 0.07141527726251495 0 0 0
86 1 4.976306199491444 5.410068910838428 3.5297553580023986 0 0 0
100 1 4.977409481795313 7.234279621847212 1.883365164961781 0 0 0
102 1 4.944767878358849 8.93338622458505 3.6901367082903525 0 0 0
147 1 6.837684692622687 5.3796098552327125 1.6669919284968824 0 0 0
163 1 6.873954067451464 9.067897255415813 1.871357454607955 0 0 0
165 1 6.798783768730608 7.164242853758511 3.604491100898101 0 0 0
82 1 4.928560671167567 5.524852943950359 0.10162294973429953 0 0 0
161 1 6.80852578726886 7.395872143962294 0.10233639586374009 0 0 0
150 1 8.645383531074218 5.224717302651793 3.514699312761749 0 0 0
164 1 8.682032906456639 7.216066848088679 1.7288051322031255 0 0 0
166 1 8.630490898964625 8.867499298463724 3.632569861855972 0 0 0
211 1 10.581743073021695 5.210612387793559 1.9959194861681855 0 0 0
227 1 10.537265677822807 8.902639392120111 1.9146954840469663 0 0 0
229 1 10.625415798185545 7.063779178819431 3.5056006084328675 0 0 0
225 1 10.661496879585082 7.264232144962189 0.043120565655379604 0 0 0
146 1 8.872492890930749 5.398938018535899 0.03979890222498717 0 0 0
162 1 8.772012692046346 9.146710448655421 0.002370322354300569 0 0 0
214 1 12.524381799327957 5.399132812927536 3.6499054567489453 0 0 0
228 1 12.519756295853373 7.141025752209116 1.7861944167435304 0 0 0
230 1 12.469030233759952 8.891912934250978 3.58077482183447 0 0 0
275 1 14.319898682235063 5.330649599595834 1.7840337410200904 0 0 0
291 1 14.446368544104297 9.00278316587753 1.8304762707431088 0 0 0
293 1 14.250302187530172 7.182247180464076 3.5209831499481963 0 0 0
210 1 12.413060611334606 5.358244007751507 0.08278260721348288 0 0 0
289 1 14.40537061420118 7.134994463806671 0.026122142188182478 0 0 0
226 1 12.53349537462501 8.989443001589793 0.07627796126230685 0 0 0
278 1 16.216857923890245 5.307172373761564 3.6729712873709746 0 0 0
292 1 16.177368339640804 7.186102161057966 1.9375017210254 0 0 0
294 1 16.084308105180188 8.997931124302534 3.529870541847648 0 0 0
339 1 18.051435046248407 5.479461769415646 1.9010483158827467 0 0 0
355 1 17.920812507155784 9.026253047259058 1.8148327041274959 0 0 0
357 1 18.133230306560403 7.370655348372226 3.619801343777052 0 0 0
290 1 16.093171619113928 8.907854857338426 0.09908405594753548 0 0 0
353 1 17.97106036347006 7.08921903471201 0.10685787128848508 0 0 0
342 1 19.840151472810003 5.489681705212632 3.636701818687764 0 0 0
356 1 19.889474107538167 7.214664863183854 1.7572036688822577 0 0 0
358 1 19.845579034001148 9.111843799516771 3.6225728762832428 0 0 0
403 1 21.81233971577806 5.297094159473552 1.961793487655451 0 0 0
419 1 21.652490464038102 8.986982010549884 1.7148428493532357 0 0 0
421 1 21.766074896512173 7.373973907743809 3.537674875417023 0 0 0
417 1 21.821067323951535 7.135654882705904 0.03381424398902097 0 0 0
338 1 19.75663460091741 5.3523052176537895 0.07730641808047575 0 0 0
406 1 23.500021473393858 5.360144211708296 3.5989482592092124 0 0 0
420 1 23.778910907029033 7.217309779843231 1.811887226976725 0 0 0
422 1 23.65644620669793 8.984833621945718 3.5556939171769986 0 0 0
467 1 25.512814976714704 5.455178049019115 1.8102181507342197 0 0 0
483 1 25.53361899658607 9.080238061261353 1.9268194645640955 0 0 0
485 1 25.35963732407352 7.066708116013143 3.7275899581580663 0 0 0
418 1 23.550334412387844 8.849852141524982 0.036018607546526915 0 0 0
470 1 27.292067899594052 5.323562857734774 3.6390669884182487 0 0 0
484 1 27.26025191230825 7.201790464043826 1.896034673092873 0 0 0
486 1 27.263782271384986 9.101181363428228 3.663408449067287 0 0 0
531 1 29.102502084332205 5.447091548549513 1.8747181654459883 0 0 0
547 1 29.17635908346021 9.27676253637709 1.8016390538214428 0 0 0
549 1 29.16159039880043 7.325269435735725 3.617222413132668 0 0 0
545 1 29.01701646097449 7.3020035591085755 0.09934172779340027 0 0 0
534 1 30.987506110997057 5.365515731682047 3.5293315700837624 0 0 0
548 1 30.94069158627707 7.319330225013555 1.8054520836821903 0 0 0
550 1 30.89091954323003 9.178392470488715 3.5517917992031243 0 0 0
595 1 32.67239419336106 5.4658436065360805 1.7636455776364932 0 0 0
611 1 32.751469400744554 9.05400592924123 1.6380870757542845 0 0 0
613 1 32.71527597476456 7.446399217567327 3.5675456727935697 0 0 0
530 1 30.93614575830449 5.411935617591655 0.0780375651950243 0 0 0
612 1 34.47072957810944 7.219822839545583 1.6629491605877358 0 0 0
598 1 34.64833539856592 5.4737646692088875 3.495325161890097 0 0 0
614 1 34.65043476867092 9.0940745671584 3.423567896744805 0 0 0
659 1 36.459198826225176 5.411753717558627 1.7444030222429114 0 0 0
675 1 36.428700733006906 9.077422408801892 1.7122631942567201 0 0 0
677 1 36.411580601315926 7.263215552033086 3.378919519098451 0 0 0
662 1 38.371206587144506 5.396467298272527 3.6050266868933143 0 0 0
673 1 36.55582800949625 7.236943205444021 0.001964966673469997 0 0 0
676 1 38.36282786326246 7.2174136847610395 1.7070579995810498 0 0 0
678 1 38.226771993913474 9.080169653273071 3.5471097118130532 0 0 0
674 1 38.33561125756448 9.144804579530714 0.01800774884767763 0 0 0
723 1 40.173466381408716 5.36020735966565 1.658735462244843 0 0 0
726 1 41.80062275883012 5.42993296618064 3.5539635275429147 0 0 0
739 1 40.144316047592 9.027775664441275 1.6969357259534628 0 0 0
740 1 41.97279107106447 7.211889412489365 1.8881181954875224 0 0 0
741 1 40.12398359758662 7.2563046429621965 3.5481682093014886 0 0 0
742 1 41.81104733502201 9.124465543110112 3.554256706923057 0 0 0
738 1 41.91814695162489 8.927517172888358 0.07831720104607594 0 0 0
722 1 42.014540301702226 5.476115861180256 0.02715731113087808 0 0 0
4 1 1.4309937896465719 14.317163920705397 1.7340944487976202 0 -1 0
5 1 -0.4992222667268063 14.402084978057141 3.4828276328464454 0 -1 0
1 1 -0.5390148970080312 14.255701830702733 0.06490684523626053 0 -1 0
51 1 -0.6606925187203617 12.55763787729479 1.7400354389856079 0 0 0
52 1 1.2089946565950382 10.798916403846778 1.9440201823247847 0 0 0
53 1 -0.49268057616989414 10.804780106208218 3.5755401516330445 0 0 0
54 1 1.3812914443210018 12.588742353921901 3.632428467450396 0 0 0
117 1 3.2052027791042 10.81279910786622 3.6578968030393826 0 0 0
113 1 3.040977141490548 10.783557047735828 0.05546443945154222 0 0 0
115 1 3.278020386606236 12.699655555181128 1.750057283276329 0 0 0
116 1 4.877733015959332 10.783343636824215 1.7475366241714854 0 0 0
118 1 4.971486657967358 12.735862048726254 3.775776655533717 0 0 0
179 1 6.858967258141594 12.53653454990445 1.9216120104228955 0 0 0
181 1 6.8753229943543035 10.77979838991685 3.7278136535743442 0 0 0
114 1 5.016087621358813 12.608586185375016 0.11049713170563946 0 0 0
193 1 10.537838858896835 14.345001672360638 0.006469795662356503 0 -1 0
132 1 8.645402071254559 14.355273571025332 1.9106400256271132 0 -1 0
180 1 8.701792394423094 10.795054977396399 1.9664924840234135 0 0 0
182 1 8.787235208604558 12.627176456803802 3.7091897936136595 0 0 0
243 1 10.662799061165117 12.674308738481956 1.8455085425850697 0 0 0
245 1 10.74083466573518 10.861912319134982 3.6614966813430954 0 0 0
178 1 8.703929626388907 12.584329183073459 0.1475641684858733 0 0 0
241 1 10.608333240518146 10.824247165626348 0.11612876186234963 0 0 0
261 1 14.395395605112077 14.437328616052415 3.6760669677777362 0 -1 0
244 1 12.434925389560874 10.72174516509143 1.9103722665425757 0 0 0
246 1 12.43690070363869 12.57061441800467 3.695245088602624 0 0 0
307 1 14.185913930458604 12.692551874090556 1.9710927139048058 0 0 0
309 1 14.201069651029496 10.816306229011943 3.640650469157527 0 0 0
242 1 12.654726741742362 12.669058693210784 0.14446961146571258 0 0 0
305 1 14.382794750311714 10.889543562128527 0.14368310682318683 0 0 0
321 1 18.002130902301868 14.404376465753314 0.07202714836820855 0 -1 0
308 1 16.225732713960785 10.995323975838815 1.8980299153365097 0 0 0
310 1 16.212201049440523 12.597515084577342 3.732637782978299 0 0 0
325 1 18.00178591761073 14.417318896937562 3.5557138171723737 0 -1 0
371 1 18.055654114308613 12.652997511481397 1.8156925956280303 0 0 0
373 1 18.010967234654803 10.780611339247347 3.7144497556260276 0 0 0
306 1 16.117347868979742 12.770434909141425 0.1314024891951292 0 0 0
324 1 19.892150559798967 14.42312830003994 1.8206226656274225 0 -1 0
372 1 19.722301960112784 10.78511473389558 1.771369804965186 0 0 0
374 1 19.873121123499843 12.631981226214302 3.494435469261405 0 0 0
435 1 21.617301061761573 12.580798377522083 1.6410228130020916 0 0 0
437 1 21.669491525886958 10.747543806014766 3.5282646569705824 0 0 0
433 1 21.546360185819548 10.793590888126808 0.04228262248531356 0 0 0
370 1 19.699763828013776 12.57812263815741 0.07606982924983383 0 0 0
388 1 23.537080827506998 14.402898763693768 1.7333018921825283 0 -1 0
436 1 23.517736697617565 10.756597759911799 1.7250584539097942 0 0 0
438 1 23.470331577518113 12.524852703588403 3.5343241575993565 0 0 0
499 1 25.46008462898299 12.66965634905845 1.7905454619649892 0 0 0
501 1 25.374014883830082 10.881919803841235 3.718141723110921 0 0 0
434 1 23.74294259607855 12.58633260393619 0.014181566023511394 0 0 0
500 1 27.301147281495744 10.926415102400943 1.8334061390687857 0 0 0
502 1 27.232057831908516 12.717900596146642 3.649142048254674 0 0 0
563 1 29.163000125668052 12.7169538944339 1.7830884637714093 0 0 0
565 1 29.03975698923365 10.963398579835092 3.738698698034102 0 0 0
516 1 30.839708027841212 14.43061546618565 1.7642783433876066 0 -1 0
564 1 30.87425386078253 10.920307213674823 1.8195240858339585 0 0 0
566 1 30.894972044165364 12.77975525563296 3.6080790037248027 0 0 0
627 1 32.7265206336715 12.677568573161436 1.7742508793251888 0 0 0
629 1 32.74512943889288 11.005658714982127 3.4825925617971327 0 0 0
562 1 30.99018544472168 12.64770935160445 0.04526133574392211 0 0 0
628 1 34.66033511495013 10.916161040048385 1.7143267535041207 0 0 0
630 1 34.66679586135858 12.756854510521915 3.523493275299557 0 0 0
691 1 36.396988044389325 12.708441679236397 1.7349873038910149 0 0 0
693 1 36.49376734249389 10.959209534624527 3.602963614330378 0 0 0
694 1 38.245444450396484 12.650502505672096 3.482302618030099 0 0 0
692 1 38.257349855447806 10.79544673941033 1.8104704952017725 0 0 0
708 1 42.06832759301983 14.332484139772355 1.8188518822950694 0 -1 0
755 1 40.119640052222344 12.724857641659382 1.777825495574435 0 0 0
756 1 41.978846920752254 10.837812288183152 1.7539549103606673 0 0 0
757 1 40.13446219571078 10.921167122333332 3.520498148128035 0 0 0
758 1 41.90457749139583 12.582645832611806 3.616009804898561 0 0 0
7 1 -0.4817664899034222 1.72742422413265 5.326046202590635 0 0 0
10 1 1.3626379802766475 1.8572520868737936 7.271581816444782 0 0 0
11 1 -0.4659599495026251 1.6952178466771672 9.160213722955591 0 0 0
24 1 1.2637629017191745 3.442760181397336 5.480871399283084 0 0 0
25 1 -0.46893280938942083 3.410306201012863 7.310383555581566 0 0 0
28 1 1.3321350844293776 3.5402840234952007 8.985097449208252 0 0 0
75 1 3.220822055103192 1.908524594158378 9.069136727101311 0 0 0
89 1 3.162761285179646 3.7185461133620987 7.306040353416354 0 0 0
8 1 1.3252909463908182 0.12848030609665284 5.4011245598511906 0 0 0
9 1 -0.23706022213998082 0.05452770582645736 7.241167587806965 0 0 0
12 1 1.510735189186364 0.028308576169444474 8.995320299908563 0 0 0
71 1 3.246540493603673 1.818225355708177 5.357670312121693 0 0 0
74 1 4.993694185262149 1.9032695580968664 7.392304509595962 0 0 0
88 1 5.118743099089621 3.7771479418884613 5.548861099192536 0 0 0
92 1 5.199002963889313 3.7854574406341346 9.188850633380556 0 0 0
135 1 6.7361779497297745 1.7637636450188177 5.647180880195607 0 0 0
139 1 6.904610273187193 1.8121469475440404 9.170042953791112 0 0 0
153 1 6.937290873136359 3.612600205807615 7.472028312507609 0 0 0
72 1 5.0410463463152055 0.04423678236152995 5.610853813350884 0 0 0
138 1 8.688820689884265 1.749373843801383 7.442121667234227 0 0 0
152 1 8.514341674722225 3.7327339933550103 5.5309197255291185 0 0 0
156 1 8.797683215109702 3.554960916641504 9.04587414712654 0 0 0
199 1 10.240057777041194 1.9412888451366228 5.515086054040234 0 0 0
203 1 10.599232386916846 1.6523218695704631 9.256491838757766 0 0 0
217 1 10.465174522667894 3.6125098431900966 7.310364473617674 0 0 0
202 1 12.319574818708958 1.8495876284781154 7.285482322721561 0 0 0
216 1 12.529810268610516 3.581442815517419 5.418513452570653 0 0 0
220 1 12.343022702444577 3.612741582497651 9.052055207694327 0 0 0
263 1 14.401126834937926 1.7289100820529557 5.4935515976763964 0 0 0
267 1 14.169774114006236 1.7283422984201942 9.084042355958676 0 0 0
281 1 14.169095664702697 3.540975650327916 7.284509481472221 0 0 0
200 1 12.435109922560265 0.1216828959260306 5.416176667457589 0 0 0
266 1 16.155346745578704 1.6999015187297646 7.322778206464084 0 0 0
280 1 16.13395392709071 3.5837058025172364 5.641512540438134 0 0 0
284 1 16.0532063296622 3.6474213953656305 9.09974068298995 0 0 0
327 1 18.09983335173148 1.7852362365753345 5.535487274341153 0 0 0
331 1 18.009622618647185 1.750770736060406 9.165125821634513 0 0 0
345 1 17.914530695585334 3.505296466600575 7.38204452276096 0 0 0
264 1 16.12723470320074 0.0621572523355432 5.338941767429198 0 0 0
330 1 19.924795493157223 1.8603182367966464 7.259587669686086 0 0 0
344 1 19.80371239553329 3.687919083522865 5.3430908477512915 0 0 0
348 1 19.784676486417613 3.6076838025871067 8.98583525577996 0 0 0
391 1 21.597813655376218 1.791648033048206 5.33965451486954 0 0 0
395 1 21.74922017568263 1.6686703191679149 9.02063919295611 0 0 0
409 1 21.48279341538392 3.5943651084220813 7.239617573404466 0 0 0
332 1 19.897909496492108 0.021659535664525772 9.030560807892035 0 0 0
394 1 23.440579635008664 1.8723144699600807 7.177894667745016 0 0 0
408 1 23.409172673450456 3.4277337162037234 5.478326983092018 0 0 0
412 1 23.510135184824875 3.6875298196458157 9.032673172819386 0 0 0
455 1 25.356691100236922 1.7733126911696606 5.369213848131238 0 0 0
459 1 25.283794405322062 1.7048791471703015 9.00777596340532 0 0 0
473 1 25.329547065152486 3.450426554413915 7.264286525756722 0 0 0
457 1 25.31506157248698 0.003003963703170732 7.214934372964253 0 0 0
458 1 27.207387227215325 1.6640971068178099 7.190765929661296 0 0 0
472 1 27.143341994542357 3.5221120752496247 5.4091237931527365 0 0 0
476 1 27.36836503125585 3.6541209635383827 8.945783090605172 0 0 0
519 1 29.113677933196772 1.9050325666815469 5.374262247669751 0 0 0
523 1 29.058044880823505 1.7833411554408378 9.090099439605195 0 0 0
537 1 29.149802687834164 3.6230234942427413 7.183594840999112 0 0 0
456 1 27.168305874168595 0.06118834280135602 5.429903295813765 0 0 0
460 1 27.1812310127219 0.023922879745365944 9.15960887293932 0 0 0
521 1 29.12985297576784 0.11926192887938646 7.247365328583478 0 0 0
522 1 31.06520419035684 1.7188008369505443 7.016383827113016 0 0 0
536 1 30.95069772273593 3.6571955546103707 5.372200409462239 0 0 0
540 1 30.887618040122575 3.454267825288208 8.91533713450174 0 0 0
583 1 32.92717937683488 1.9551683807886082 5.404851028065373 0 0 0
587 1 32.88397094615076 1.9694449635662248 8.822512242104972 0 0 0
601 1 32.80471150791378 3.7704216276539166 6.979572766624825 0 0 0
520 1 30.885029593195654 0.12597325656943847 5.370109194191192 0 0 0
524 1 30.97546428566086 0.20361054934765524 8.913339930783966 0 0 0
586 1 34.71817663943862 1.9216081069308522 7.174403355873445 0 0 0
600 1 34.709917594663146 3.8034347866806613 5.44089625880765 0 0 0
604 1 34.63263297180242 3.749840736717168 8.934437190018002 0 0 0
647 1 36.47902520489963 1.9254085462652044 5.2862065794111075 0 0 0
651 1 36.49865748538086 1.7842895752643695 8.977698157992874 0 0 0
665 1 36.53331114246578 3.6718685724251907 7.203265483962297 0 0 0
650 1 38.348604126514175 1.8384157881348415 7.233104467855064 0 0 0
668 1 38.30378601345858 3.7058460276543683 9.08134346500874 0 0 0
664 1 38.28024907368426 3.7191687640298 5.395382453815382 0 0 0
648 1 38.25443465760161 0.07804834662579105 5.362250515715654 0 0 0
649 1 36.476724750992766 0.035444479583273805 7.1784915289670606 0 0 0
588 1 34.65810346264065 0.04028034935241284 8.957850722783249 0 0 0
584 1 34.72556228808904 0.1424680849855434 5.426010761671019 0 0 0
711 1 39.94629088038063 1.9768742393978498 5.4388144550988615 0 0 0
714 1 41.985451102368025 1.7605835138518438 7.147986098025592 0 0 0
715 1 40.35510386489815 1.7172227730933185 9.100789717226943 0 0 0
728 1 42.0266148095803 3.6210183521406663 5.3646093719622465 0 0 0
729 1 40.18957923784933 3.5517887855235823 7.276000976622154 0 0 0
732 1 42.25336079671772 3.5818172886184496 9.027440777054426 0 0 0
713 1 40.18221963580263 0.07203974095878302 7.201664159550227 0 0 0
712 1 41.81158222141937 0.14347202397732298 5.252539392592023 0 0 0
23 1 -0.4612741981614768 5.252020671609126 5.469707272309819 0 0 0
26 1 1.2584406638562762 5.267407849458505 7.175505096791953 0 0 0
27 1 -0.5177545702309397 5.2916143536259845 8.986411849365185 0 0 0
39 1 -0.47246192685465843 8.93816730491334 5.29921705583475 0 0 0
40 1 1.271743748638372 7.099684022351005 5.414023733165142 0 0 0
41 1 -0.48733790203090704 7.1569932640384355 7.257763772109429 0 0 0
42 1 1.3189805538892132 8.970002423097743 7.166444386581685 0 0 0
43 1 -0.37907455621990205 8.943351608010325 9.033438535125798 0 0 0
44 1 1.3174791546627584 7.115106349338723 9.013819562559014 0 0 0
91 1 3.2004501981444418 5.411690480115561 8.911875293821963 0 0 0
87 1 3.0976824019278144 5.240884251440079 5.363116301806081 0 0 0
107 1 3.1034577824503162 8.835849511095104 9.061999468508484 0 0 0
105 1 3.1457133530525696 6.969321849178226 7.1368238992120485 0 0 0
103 1 2.9868694697193994 9.014942295626364 5.378081894121814 0 0 0
90 1 5.236666219694275 5.47856012227051 7.353101909595809 0 0 0
104 1 5.030369809999973 7.1199024625262055 5.392100438187329 0 0 0
106 1 4.9656643662271645 8.778011632409015 7.26240640578434 0 0 0
108 1 5.081060977826487 7.173446947096547 9.09249979421569 0 0 0
151 1 6.801657858994092 5.490458730821723 5.497578511831063 0 0 0
155 1 7.07121236710597 5.492808003404198 9.326631463289894 0 0 0
167 1 6.884214590831602 8.801956909845336 5.519332993813379 0 0 0
169 1 7.0090826953266285 7.145237455383964 7.417830740842839 0 0 0
171 1 7.000008416552419 9.049465841396355 9.082725911342019 0 0 0
154 1 8.6726916206425 5.454654308998713 7.525397559615423 0 0 0
168 1 8.734770511916297 7.099296761225219 5.272628617360254 0 0 0
170 1 8.75542645276681 8.928381809608702 7.210255405410211 0 0 0
172 1 8.83472505824823 7.304048820552669 9.21979251420293 0 0 0
215 1 10.618335206549023 5.365204146462146 5.5276412203248 0 0 0
219 1 10.52962714963203 5.460896197819144 9.153528248621718 0 0 0
231 1 10.590313588746929 8.892764837943483 5.253614368902444 0 0 0
233 1 10.609478280420939 7.337777328319197 7.278196898725786 0 0 0
235 1 10.712646402509664 9.073327317080805 9.061017865897654 0 0 0
218 1 12.533963219786195 5.511201484661205 7.127995541569671 0 0 0
232 1 12.444247253436235 7.32997358485672 5.313352142261023 0 0 0
234 1 12.449452073248274 9.066493809389755 7.09506210162439 0 0 0
236 1 12.36507838075243 7.27595533750792 8.959880510271455 0 0 0
279 1 14.373042299649496 5.404479234319937 5.299260395015502 0 0 0
283 1 14.184344231557265 5.345209356864358 9.100201372341818 0 0 0
295 1 14.358968574149028 9.069013200659112 5.422463199766319 0 0 0
297 1 14.256992794359128 7.229735658860054 7.222647892844044 0 0 0
299 1 14.054724921092662 8.99016519900515 9.18007423712694 0 0 0
282 1 16.069630704240858 5.413893094362857 7.288890394035501 0 0 0
296 1 16.115827231464444 7.220745400578954 5.419831142111556 0 0 0
298 1 16.020682374208064 8.882829850597956 7.369535637487009 0 0 0
300 1 15.98396399788888 7.123603618049651 9.013516834989217 0 0 0
343 1 17.941766617618974 5.447406818827381 5.461355886395974 0 0 0
347 1 17.885311964221206 5.414590159491746 9.11537907157873 0 0 0
359 1 17.882445938982727 8.990909322682722 5.524477270179381 0 0 0
361 1 17.89990874466269 7.231244199897136 7.278399715968354 0 0 0
363 1 17.901527385344917 9.05680324925665 9.024272512148235 0 0 0
346 1 19.737619405861984 5.425561952547333 7.243570356373248 0 0 0
360 1 19.841222870443275 7.294707247908361 5.491174147485276 0 0 0
362 1 19.84980107693523 9.05708561714505 7.247289299132597 0 0 0
364 1 19.71544196889589 7.224389533401136 8.962605007268031 0 0 0
407 1 21.70069870779346 5.3220100322492465 5.402558253054213 0 0 0
411 1 21.693915342367553 5.473694725866375 8.957783042614185 0 0 0
423 1 21.695888376063948 8.993547179070303 5.513400837664379 0 0 0
425 1 21.63501354486864 7.183446623010536 7.1151659094170645 0 0 0
427 1 21.624849709815734 9.012732832400522 8.949335834572366 0 0 0
410 1 23.548181543477668 5.375666681787992 7.190735824855096 0 0 0
424 1 23.524158696480864 7.114662981232961 5.501770134076165 0 0 0
426 1 23.684262498287577 9.009135758091817 7.206925010413189 0 0 0
428 1 23.471650469700993 7.37690645918471 9.109604256375636 0 0 0
471 1 25.309024877155164 5.251149841457848 5.346446297285771 0 0 0
475 1 25.280089437234942 5.422907377884115 8.917141468880649 0 0 0
487 1 25.448204428676885 8.936773713371464 5.487812531157379 0 0 0
489 1 25.43746638911727 7.195581462243767 7.259981740854206 0 0 0
491 1 25.395725300893382 9.03326376402757 9.131878407089832 0 0 0
474 1 27.19816328712903 5.294710743312717 7.070939288971662 0 0 0
488 1 27.244001973376 7.120558366621379 5.412047361663809 0 0 0
490 1 27.157256608979587 9.02401513658183 7.218392075575521 0 0 0
492 1 27.185680093333037 7.141102851699905 8.964200091113225 0 0 0
535 1 29.119806984562402 5.376893067215064 5.405326560981178 0 0 0
539 1 29.140195753463242 5.422395080286809 8.915136127293168 0 0 0
551 1 28.8860741943495 9.043461092096473 5.521817516967766 0 0 0
553 1 29.071834980604137 7.1138034858849215 7.16586389097981 0 0 0
555 1 28.928774178715685 8.925071104011245 8.91685298678321 0 0 0
538 1 30.971184960662118 5.437359702370985 7.295924026763555 0 0 0
552 1 30.994807001511113 7.20677297112799 5.3705616429774325 0 0 0
554 1 30.95993399867112 8.97213498413692 7.22865701638185 0 0 0
556 1 31.040091640519673 7.244152097108815 8.905532878698482 0 0 0
599 1 32.85112458631523 5.498350560725801 5.310151525065688 0 0 0
603 1 32.8417130571145 5.469717962908082 9.034663524628703 0 0 0
615 1 32.81853228155675 9.091394978132293 5.4323512924802895 0 0 0
617 1 32.78813646172849 7.232683210993279 7.225531001094302 0 0 0
619 1 32.75982456345405 9.07667625592593 9.069666754377394 0 0 0
602 1 34.789809805024824 5.531039581859459 7.125089014259737 0 0 0
616 1 34.782212691560225 7.3765007742850655 5.281025219535447 0 0 0
618 1 34.65718782881495 8.890928288705732 7.276201988543193 0 0 0
620 1 34.621056075174195 7.280181697655126 9.022270355097426 0 0 0
663 1 36.454211319991835 5.451983759615681 5.334222766132344 0 0 0
667 1 36.439264464125024 5.457973551105221 9.008255538617627 0 0 0
679 1 36.48230095694915 8.971212533913425 5.329504387596028 0 0 0
681 1 36.544116895443885 7.145334512742596 7.298768465620075 0 0 0
683 1 36.61560876303495 9.016815177780446 8.968073416440028 0 0 0
666 1 38.30219992854715 5.465900818109121 7.207826203935156 0 0 0
682 1 38.286591235414356 8.931029525667633 7.1744949323746745 0 0 0
680 1 38.281540843128916 7.196295535633401 5.3076735059292615 0 0 0
684 1 38.44557979729532 7.296396883601755 9.08374766632295 0 0 0
727 1 40.14579650731192 5.3909546544337275 5.415935177573513 0 0 0
730 1 41.99616766007408 5.517903674454405 7.307918009861213 0 0 0
731 1 40.20050835790208 5.432517780986077 8.904784321504568 0 0 0
743 1 40.09824293995144 9.082376912937336 5.3160079985277084 0 0 0
744 1 42.09665595973263 7.366885066523991 5.420479207795043 0 0 0
745 1 40.25334187715084 7.3840953039721935 7.08890762790393 0 0 0
746 1 42.2744872677362 9.072180416027559 7.300609577350707 0 0 0
747 1 40.26966061433161 9.187773425877973 8.899571759339304 0 0 0