LAMMPS Description

1000 atoms
1 atom types

0.0 35.2 xlo xhi
0.0 17.6 ylo yhi
0.0 17.6 zlo zhi

Masses

1 58.69

Atoms # atomic

1 1 0.0 0.0 0.0
2 1 1.76 1.76 0.0
3 1 0.0 1.76 1.76
4 1 1.76 0.0 1.76
5 1 0.0 0.0 3.52
6 1 1.76 1.76 3.52
7 1 0.0 1.76 5.28
8 1 1.76 0.0 5.28
9 1 0.0 0.0 7.04
10 1 1.76 1.76 7.04
11 1 0.0 1.76 8.8
12 1 1.76 0.0 8.8
13 1 0.0 0.0 10.56
14 1 1.76 1.76 10.56
15 1 0.0 1.76 12.32
16 1 1.76 0.0 12.32
17 1 0.0 0.0 14.08
18 1 1.76 1.76 14.08
19 1 0.0 1.76 15.84
20 1 1.76 0.0 15.84
21 1 0.0 3.52 0.0
22 1 1.76 5.28 0.0
23 1 0.0 5.28 1.76
24 1 1.76 3.52 1.76
25 1 0.0 3.52 3.52
26 1 1.76 5.28 3.52
27 1 0.0 5.28 5.28
28 1 1.76 3.52 5.28
29 1 0.0 3.52 7.04
30 1 1.76 5.28 7.04
31 1 0.0 5.28 8.8
32 1 1.76 3.52 8.8
33 1 0.0 3.52 10.56
34 1 1.76 5.28 10.56
35 1 0.0 5.28 12.32
36 1 1.76 3.52 12.32
37 1 0.0 3.52 14.08
38 1 1.76 5.28 14.08
39 1 0.0 5.28 15.84
40 1 1.76 3.52 15.84
41 1 0.0 7.04 0.0
42 1 1.76 8.8 0.0
43 1 0.0 8.8 1.76
44 1 1.76 7.04 1.76
45 1 0.0 7.04 3.52
46 1 1.76 8.8 3.52
47 1 0.0 8.8 5.28
48 1 1.76 7.04 5.28
49 1 0.0 7.04 7.04
50 1 1.76 8.8 7.04
51 1 0.0 8.8 8.8
52 1 1.76 7.04 8.8
53 1 0.0 7.04 10.56
54 1 1.76 8.8 10.56
55 1 0.0 8.8 12.32
56 1 1.76 7.04 12.32
57 1 0.0 7.04 14.08
58 1 1.76 8.8 14.08
59 1 0.0 8.8 15.84
60 1 1.76 7.04 15.84
61 1 0.0 10.56 0.0
62 1 1.76 12.32 0.0
63 1 0.0 12.32 1.76
64 1 1.76 10.56 1.76
65 1 0.0 10.56 3.52
66 1 1.76 12.32 3.52
67 1 0.0 12.32 5.28
68 1 1.76 10.56 5.28
69 1 0.0 10.56 7.04
70 1 1.76 12.32 7.04
71 1 0.0 12.32 8.8
72 1 1.76 10.56 8.8
73 1 0.0 10.56 10.56
74 1 1.76 12.32 10.56
75 1 0.0 12.32 12.32
76 1 1.76 10.56 12.32
77 1 0.0 10.56 14.08
78 1 1.76 12.32 14.08
79 1 0.0 12.32 15.84
80 1 1.76 10.56 15.84
81 1 0.0 14.08 0.0
82 1 1.76 15.84 0.0
83 1 0.0 15.84 1.76
84 1 1.76 14.08 1.76
85 1 0.0 14.08 3.52
86 1 1.76 15.84 3.52
87 1 0.0 15.84 5.28
88 1 1.76 14.08 5.28
89 1 0.0 14.08 7.04
90 1 1.76 15.84 7.04
91 1 0.0 15.84 8.8
92 1 1.76 14.08 8.8
93 1 0.0 14.08 10.56
94 1 1.76 15.84 10.56
95 1 0.0 15.84 12.32
96 1 1.76 14.08 12.32
97 1 0.0 14.08 14.08
98 1 1.76 15.84 14.08
99 1 0.0 15.84 15.84
100 1 1.76 14.08 15.84
101 1 3.52 0.0 0.0
102 1 5.28 1.76 0.0
103 1 3.52 1.76 1.76
104 1 5.28 0.0 1.76
105 1 3.52 0.0 3.52
106 1 5.28 1.76 3.52
107 1 3.52 1.76 5.28
108 1 5.28 0.0 5.28
109 1 3.52 0.0 7.04
110 1 5.28 1.76 7.04
111 1 3.52 1.76 8.8
112 1 5.28 0.0 8.8
113 1 3.52 0.0 10.56
114 1 5.28 1.76 10.56
115 1 3.52 1.76 12.32
116 1 5.28 0.0 12.32
117 1 3.52 0.0 14.08
118 1 5.28 1.76 14.08
119 1 3.52 1.76 15.84
120 1 5.28 0.0 15.84
121 1 3.52 3.52 0.0
122 1 5.28 5.28 0.0
123 1 3.52 5.28 1.76
124 1 5.28 3.52 1.76
125 1 3.52 3.52 3.52
126 1 5.28 5.28 3.52
127 1 3.52 5.28 5.28
128 1 5.28 3.52 5.28
129 1 3.52 3.52 7.04
130 1 5.28 5.28 7.04
131 1 3.52 5.28 8.8
132 1 5.28 3.52 8.8
133 1 3.52 3.52 10.56
134 1 5.28 5.28 10.56
135 1 3.52 5.28 12.32
136 1 5.28 3.52 12.32
137 1 3.52 3.52 14.08
138 1 5.28 5.28 14.08
139 1 3.52 5.28 15.84
140 1 5.28 3.52 15.84
141 1 3.52 7.04 0.0
142 1 5.28 8.8 0.0
143 1 3.52 8.8 1.76
144 1 5.28 7.04 1.76
145 1 3.52 7.04 3.52
146 1 5.28 8.8 3.52
147 1 3.52 8.8 5.28
148 1 5.28 7.04 5.28
149 1 3.52 7.04 7.04
150 1 5.28 8.8 7.04
151 1 3.52 8.8 8.8
152 1 5.28 7.04 8.8
153 1 3.52 7.04 10.56
154 1 5.28 8.8 10.56
155 1 3.52 8.8 12.32
156 1 5.28 7.04 12.32
157 1 3.52 7.04 14.08
158 1 5.28 8.8 14.08
159 1 3.52 8.8 15.84
160 1 5.28 7.04 15.84
161 1 3.52 10.56 0.0
162 1 5.28 12.32 0.0
163 1 3.52 12.32 1.76
164 1 5.28 10.56 1.76
165 1 3.52 10.56 3.52
166 1 5.28 12.32 3.52
167 1 3.52 12.32 5.28
168 1 5.28 10.56 5.28
169 1 3.52 10.56 7.04
170 1 5.28 12.32 7.04
171 1 3.52 12.32 8.8
172 1 5.28 10.56 8.8
173 1 3.52 10.56 10.56
174 1 5.28 12.32 10.56
175 1 3.52 12.32 12.32
176 1 5.28 10.56 12.32
177 1 3.52 10.56 14.08
178 1 5.28 12.32 14.08
179 1 3.52 12.32 15.84
180 1 5.28 10.56 15.84
181 1 3.52 14.08 0.0
182 1 5.28 15.84 0.0
183 1 3.52 15.84 1.76
184 1 5.28 14.08 1.76
185 1 3.52 14.08 3.52
186 1 5.28 15.84 3.52
187 1 3.52 15.84 5.28
188 1 5.28 14.08 5.28
189 1 3.52 14.08 7.04
190 1 5.28 15.84 7.04
191 1 3.52 15.84 8.8
192 1 5.28 14.08 8.8
193 1 3.52 14.08 10.56
194 1 5.28 15.84 10.56
195 1 3.52 15.84 12.32
196 1 5.28 14.08 12.32
197 1 3.52 14.08 14.08
198 1 5.28 15.84 14.08
199 1 3.52 15.84 15.84
200 1 5.28 14.08 15.84
201 1 7.04 0.0 0.0
202 1 8.8 1.76 0.0
203 1 7.04 1.76 1.76
204 1 8.8 0.0 1.76
205 1 7.04 0.0 3.52
206 1 8.8 1.76 3.52
207 1 7.04 1.76 5.28
208 1 8.8 0.0 5.28
209 1 7.04 0.0 7.04
210 1 8.8 1.76 7.04
211 1 7.04 1.76 8.8
212 1 8.8 0.0 8.8
213 1 7.04 0.0 10.56
214 1 8.8 1.76 10.56
215 1 7.04 1.76 12.32
216 1 8.8 0.0 12.32
217 1 7.04 0.0 14.08
218 1 8.8 1.76 14.08
219 1 7.04 1.76 15.84
220 1 8.8 0.0 15.84
221 1 7.04 3.52 0.0
222 1 8.8 5.28 0.0
223 1 7.04 5.28 1.76
224 1 8.8 3.52 1.76
225 1 7.04 3.52 3.52
226 1 8.8 5.28 3.52
227 1 7.04 5.28 5.28
228 1 8.8 3.52 5.28
229 1 7.04 3.52 7.04
230 1 8.8 5.28 7.04
231 1 7.04 5.28 8.8
232 1 8.8 3.52 8.8
233 1 7.04 3.52 10.56
234 1 8.8 5.28 10.56
235 1 7.04 5.28 12.32
236 1 8.8 3.52 12.32
237 1 7.04 3.52 14.08
238 1 8.8 5.28 14.08
239 1 7.04 5.28 15.84
240 1 8.8 3.52 15.84
241 1 7.04 7.04 0.0
242 1 8.8 8.8 0.0
243 1 7.04 8.8 1.76
244 1 8.8 7.04 1.76
245 1 7.04 7.04 3.52
246 1 8.8 8.8 3.52
247 1 7.04 8.8 5.28
248 1 8.8 7.04 5.28
249 1 7.04 7.04 7.04
250 1 8.8 8.8 7.04
251 1 7.04 8.8 8.8
252 1 8.8 7.04 8.8
253 1 7.04 7.04 10.56
254 1 8.8 8.8 10.56
255 1 7.04 8.8 12.32
256 1 8.8 7.04 12.32
257 1 7.04 7.04 14.08
258 1 8.8 8.8 14.08
259 1 7.04 8.8 15.84
260 1 8.8 7.04 15.84
261 1 7.04 10.56 0.0
262 1 8.8 12.32 0.0
263 1 7.04 12.32 1.76
264 1 8.8 10.56 1.76
265 1 7.04 10.56 3.52
266 1 8.8 12.32 3.52
267 1 7.04 12.32 5.28
268 1 8.8 10.56 5.28
269 1 7.04 10.56 7.04
270 1 8.8 12.32 7.04
271 1 7.04 12.32 8.8
272 1 8.8 10.56 8.8
273 1 7.04 10.56 10.56
274 1 8.8 12.32 10.56
275 1 7.04 12.32 12.32
276 1 8.8 10.56 12.32
277 1 7.04 10.56 14.08
278 1 8.8 12.32 14.08
279 1 7.04 12.32 15.84
280 1 8.8 10.56 15.84
281 1 7.04 14.08 0.0
282 1 8.8 15.84 0.0
283 1 7.04 15.84 1.76
284 1 8.8 14.08 1.76
285 1 7.04 14.08 3.52
286 1 8.8 15.84 3.52
287 1 7.04 15.84 5.28
288 1 8.8 14.08 5.28
289 1 7.04 14.08 7.04
290 1 8.8 15.84 7.04
291 1 7.04 15.84 8.8
292 1 8.8 14.08 8.8
293 1 7.04 14.08 10.56
294 1 8.8 15.84 10.56
295 1 7.04 15.84 12.32
296 1 8.8 14.08 12.32
297 1 7.04 14.08 14.08
298 1 8.8 15.84 14.08
299 1 7.04 15.84 15.84
300 1 8.8 14.08 15.84
301 1 10.56 0.0 0.0
302 1 12.32 1.76 0.0
303 1 10.56 1.76 1.76
304 1 12.32 0.0 1.76
305 1 10.56 0.0 3.52
306 1 12.32 1.76 3.52
307 1 10.56 1.76 5.28
308 1 12.32 0.0 5.28
309 1 10.56 0.0 7.04
310 1 12.32 1.76 7.04
311 1 10.56 1.76 8.8
312 1 12.32 0.0 8.8
313 1 10.56 0.0 10.56
314 1 12.32 1.76 10.56
315 1 10.56 1.76 12.32
316 1 12.32 0.0 12.32
317 1 10.56 0.0 14.08
318 1 12.32 1.76 14.08
319 1 10.56 1.76 15.84
320 1 12.32 0.0 15.84
321 1 10.56 3.52 0.0
322 1 12.32 5.28 0.0
323 1 10.56 5.28 1.76
324 1 12.32 3.52 1.76
325 1 10.56 3.52 3.52
326 1 12.32 5.28 3.52
327 1 10.56 5.28 5.28
328 1 12.32 3.52 5.28
329 1 10.56 3.52 7.04
330 1 12.32 5.28 7.04
331 1 10.56 5.28 8.8
332 1 12.32 3.52 8.8
333 1 10.56 3.52 10.56
334 1 12.32 5.28 10.56
335 1 10.56 5.28 12.32
336 1 12.32 3.52 12.32
337 1 10.56 3.52 14.08
338 1 12.32 5.28 14.08
339 1 10.56 5.28 15.84
340 1 12.32 3.52 15.84
341 1 10.56 7.04 0.0
342 1 12.32 8.8 0.0
343 1 10.56 8.8 1.76
344 1 12.32 7.04 1.76
345 1 10.56 7.04 3.52
346 1 12.32 8.8 3.52
347 1 10.56 8.8 5.28
348 1 12.32 7.04 5.28
349 1 10.56 7.04 7.04
350 1 12.32 8.8 7.04
351 1 10.56 8.8 8.8
352 1 12.32 7.04 8.8
353 1 10.56 7.04 10.56
354 1 12.32 8.8 10.56
355 1 10.56 8.8 12.32
356 1 12.32 7.04 12.32
357 1 10.56 7.04 14.08
358 1 12.32 8.8 14.08
359 1 10.56 8.8 15.84
360 1 12.32 7.04 15.84
361 1 10.56 10.56 0.0
362 1 12.32 12.32 0.0
363 1 10.56 12.32 1.76
364 1 12.32 10.56 1.76
365 1 10.56 10.56 3.52
366 1 12.32 12.32 3.52
367 1 10.56 12.32 5.28
368 1 12.32 10.56 5.28
369 1 10.56 10.56 7.04
370 1 12.32 12.32 7.04
371 1 10.56 12.32 8.8
372 1 12.32 10.56 8.8
373 1 10.56 10.56 10.56
374 1 12.32 12.32 10.56
375 1 10.56 12.32 12.32
376 1 12.32 10.56 12.32
377 1 10.56 10.56 14.08
378 1 12.32 12.32 14.08
379 1 10.56 12.32 15.84
380 1 12.32 10.56 15.84
381 1 10.56 14.08 0.0
382 1 12.32 15.84 0.0
383 1 10.56 15.84 1.76
384 1 12.32 14.08 1.76
385 1 10.56 14.08 3.52
386 1 12.32 15.84 3.52
387 1 10.56 15.84 5.28
388 1 12.32 14.08 5.28
389 1 10.56 14.08 7.04
390 1 12.32 15.84 7.04
391 1 10.56 15.84 8.8
392 1 12.32 14.08 8.8
393 1 10.56 14.08 10.56
394 1 12.32 15.84 10.56
395 1 10.56 15.84 12.32
396 1 12.32 14.08 12.32
397 1 10.56 14.08 14.08
398 1 12.32 15.84 14.08
399 1 10.56 15.84 15.84
400 1 12.32 14.08 15.84
401 1 14.08 0.0 0.0
402 1 15.84 1.76 0.0
403 1 14.08 1.76 1.76
404 1 15.84 0.0 1.76
405 1 14.08 0.0 3.52
406 1 15.84 1.76 3.52
407 1 14.08 1.76 5.28
408 1 15.84 0.0 5.28
409 1 14.08 0.0 7.04
410 1 15.84 1.76 7.04
411 1 14.08 1.76 8.8
412 1 15.84 0.0 8.8
413 1 14.08 0.0 10.56
414 1 15.84 1.76 10.56
415 1 14.08 1.76 12.32
416 1 15.84 0.0 12.32
417 1 14.08 0.0 14.08
418 1 15.84 1.76 14.08
419 1 14.08 1.76 15.84
420 1 15.84 0.0 15.84
421 1 14.08 3.52 0.0
422 1 15.84 5.28 0.0
423 1 14.08 5.28 1.76
424 1 15.84 3.52 1.76
425 1 14.08 3.52 3.52
426 1 15.84 5.28 3.52
427 1 14.08 5.28 5.28
428 1 15.84 3.52 5.28
429 1 14.08 3.52 7.04
430 1 15.84 5.28 7.04
431 1 14.08 5.28 8.8
432 1 15.84 3.52 8.8
433 1 14.08 3.52 10.56
434 1 15.84 5.28 10.56
435 1 14.08 5.28 12.32
436 1 15.84 3.52 12.32
437 1 14.08 3.52 14.08
438 1 15.84 5.28 14.08
439 1 14.08 5.28 15.84
440 1 15.84 3.52 15.84
441 1 14.08 7.04 0.0
442 1 15.84 8.8 0.0
443 1 14.08 8.8 1.76
444 1 15.84 7.04 1.76
445 1 14.08 7.04 3.52
446 1 15.84 8.8 3.52
447 1 14.08 8.8 5.28
448 1 15.84 7.04 5.28
449 1 14.08 7.04 7.04
450 1 15.84 8.8 7.04
451 1 14.08 8.8 8.8
452 1 15.84 7.04 8.8
453 1 14.08 7.04 10.56
454 1 15.84 8.8 10.56
455 1 14.08 8.8 12.32
456 1 15.84 7.04 12.32
457 1 14.08 7.04 14.08
458 1 15.84 8.8 14.08
459 1 14.08 8.8 15.84
460 1 15.84 7.04 15.84
461 1 14.08 10.56 0.0
462 1 15.84 12.32 0.0
463 1 14.08 12.32 1.76
464 1 15.84 10.56 1.76
465 1 14.08 10.56 3.52
466 1 15.84 12.32 3.52
467 1 14.08 12.32 5.28
468 1 15.84 10.56 5.28
469 1 14.08 10.56 7.04
470 1 15.84 12.32 7.04
471 1 14.08 12.32 8.8
472 1 15.84 10.56 8.8
473 1 14.08 10.56 10.56
474 1 15.84 12.32 10.56
475 1 14.08 12.32 12.32
476 1 15.84 10.56 12.32
477 1 14.08 10.56 14.08
478 1 15.84 12.32 14.08
479 1 14.08 12.32 15.84
480 1 15.84 10.56 15.84
481 1 14.08 14.08 0.0
482 1 15.84 15.84 0.0
483 1 14.08 15.84 1.76
484 1 15.84 14.08 1.76
485 1 14.08 14.08 3.52
486 1 15.84 15.84 3.52
487 1 14.08 15.84 5.28
488 1 15.84 14.08 5.28
489 1 14.08 14.08 7.04
490 1 15.84 15.84 7.04
491 1 14.08 15.84 8.8
492 1 15.84 14.08 8.8
493 1 14.08 14.08 10.56
494 1 15.84 15.84 10.56
495 1 14.08 15.84 12.32
496 1 15.84 14.08 12.32
497 1 14.08 14.08 14.08
498 1 15.84 15.84 14.08
499 1 14.08 15.84 15.84
500 1 15.84 14.08 15.84
501 1 17.6 0.0 0.0
502 1 19.36 1.76 0.0
503 1 17.6 1.76 1.76
504 1 19.36 0.0 1.76
505 1 17.6 0.0 3.52
506 1 19.36 1.76 3.52
507 1 17.6 1.76 5.28
508 1 19.36 0.0 5.28
509 1 17.6 0.0 7.04
510 1 19.36 1.76 7.04
511 1 17.6 1.76 8.8
512 1 19.36 0.0 8.8
513 1 17.6 0.0 10.56
514 1 19.36 1.76 10.56
515 1 17.6 1.76 12.32
516 1 19.36 0.0 12.32
517 1 17.6 0.0 14.08
518 1 19.36 1.76 14.08
519 1 17.6 1.76 15.84
520 1 19.36 0.0 15.84
521 1 17.6 3.52 0.0
522 1 19.36 5.28 0.0
523 1 17.6 5.28 1.76
524 1 19.36 3.52 1.76
525 1 17.6 3.52 3.52
526 1 19.36 5.28 3.52
527 1 17.6 5.28 5.28
528 1 19.36 3.52 5.28
529 1 17.6 3.52 7.04
530 1 19.36 5.28 7.04
531 1 17.6 5.28 8.8
532 1 19.36 3.52 8.8
533 1 17.6 3.52 10.56
534 1 19.36 5.28 10.56
535 1 17.6 5.28 12.32
536 1 19.36 3.52 12.32
537 1 17.6 3.52 14.08
538 1 19.36 5.28 14.08
539 1 17.6 5.28 15.84
540 1 19.36 3.52 15.84
541 1 17.6 7.04 0.0
542 1 19.36 8.8 0.0
543 1 17.6 8.8 1.76
544 1 19.36 7.04 1.76
545 1 17.6 7.04 3.52
546 1 19.36 8.8 3.52
547 1 17.6 8.8 5.28
548 1 19.36 7.04 5.28
549 1 17.6 7.04 7.04
550 1 19.36 8.8 7.04
551 1 17.6 8.8 8.8
552 1 19.36 7.04 8.8
553 1 17.6 7.04 10.56
554 1 19.36 8.8 10.56
555 1 17.6 8.8 12.32
556 1 19.36 7.04 12.32
557 1 17.6 7.04 14.08
558 1 19.36 8.8 14.08
559 1 17.6 8.8 15.84
560 1 19.36 7.04 15.84
561 1 17.6 10.56 0.0
562 1 19.36 12.32 0.0
563 1 17.6 12.32 1.76
564 1 19.36 10.56 1.76
565 1 17.6 10.56 3.52
566 1 19.36 12.32 3.52
567 1 17.6 12.32 5.28
568 1 19.36 10.56 5.28
569 1 17.6 10.56 7.04
570 1 19.36 12.32 7.04
571 1 17.6 12.32 8.8
572 1 19.36 10.56 8.8
573 1 17.6 10.56 10.56
574 1 19.36 12.32 10.56
575 1 17.6 12.32 12.32
576 1 19.36 10.56 12.32
577 1 17.6 10.56 14.08
578 1 19.36 12.32 14.08
579 1 17.6 12.32 15.84
580 1 19.36 10.56 15.84
581 1 17.6 14.08 0.0
582 1 19.36 15.84 0.0
583 1 17.6 15.84 1.76
584 1 19.36 14.08 1.76
585 1 17.6 14.08 3.52
586 1 19.36 15.84 3.52
587 1 17.6 15.84 5.28
588 1 19.36 14.08 5.28
589 1 17.6 14.08 7.04
590 1 19.36 15.84 7.04
591 1 17.6 15.84 8.8
592 1 19.36 14.08 8.8
593 1 17.6 14.08 10.56
594 1 19.36 15.84 10.56
595 1 17.6 15.84 12.32
596 1 19.36 14.08 12.32
597 1 17.6 14.08 14.08
598 1 19.36 15.84 14.08
599 1 17.6 15.84 15.84
600 1 19.36 14.08 15.84
601 1 21.12 0.0 0.0
602 1 22.88 1.76 0.0
603 1 21.12 1.76 1.76
604 1 22.88 0.0 1.76
605 1 21.12 0.0 3.52
606 1 22.88 1.76 3.52
607 1 21.12 1.76 5.28
608 1 22.88 0.0 5.28
609 1 21.12 0.0 7.04
610 1 22.88 1.76 7.04
611 1 21.12 1.76 8.8
612 1 22.88 0.0 8.8
613 1 21.12 0.0 10.56
614 1 22.88 1.76 10.56
615 1 21.12 1.76 12.32
616 1 22.88 0.0 12.32
617 1 21.12 0.0 14.08
618 1 22.88 1.76 14.08
619 1 21.12 1.76 15.84
620 1 22.88 0.0 15.84
621 1 21.12 3.52 0.0
622 1 22.88 5.28 0.0
623 1 21.12 5.28 1.76
624 1 22.88 3.52 1.76
625 1 21.12 3.52 3.52
626 1 22.88 5.28 3.52
627 1 21.12 5.28 5.28
628 1 22.88 3.52 5.28
629 1 21.12 3.52 7.04
630 1 22.88 5.28 7.04
631 1 21.12 5.28 8.8
632 1 22.88 3.52 8.8
633 1 21.12 3.52 10.56
634 1 22.88 5.28 10.56
635 1 21.12 5.28 12.32
636 1 22.88 3.52 12.32
637 1 21.12 3.52 14.08
638 1 22.88 5.28 14.08
639 1 21.12 5.28 15.84
640 1 22.88 3.52 15.84
641 1 21.12 7.04 0.0
642 1 22.88 8.8 0.0
643 1 21.12 8.8 1.76
644 1 22.88 7.04 1.76
645 1 21.12 7.04 3.52
646 1 22.88 8.8 3.52
647 1 21.12 8.8 5.28
648 1 22.88 7.04 5.28
649 1 21.12 7.04 7.04
650 1 22.88 8.8 7.04
651 1 21.12 8.8 8.8
652 1 22.88 7.04 8.8
653 1 21.12 7.04 10.56
654 1 22.88 8.8 10.56
655 1 21.12 8.8 12.32
656 1 22.88 7.04 12.32
657 1 21.12 7.04 14.08
658 1 22.88 8.8 14.08
659 1 21.12 8.8 15.84
660 1 22.88 7.04 15.84
661 1 21.12 10.56 0.0
662 1 22.88 12.32 0.0
663 1 21.12 12.32 1.76
664 1 22.88 10.56 1.76
665 1 21.12 10.56 3.52
666 1 22.88 12.32 3.52
667 1 21.12 12.32 5.28
668 1 22.88 10.56 5.28
669 1 21.12 10.56 7.04
670 1 22.88 12.32 7.04
671 1 21.12 12.32 8.8
672 1 22.88 10.56 8.8
673 1 21.12 10.56 10.56
674 1 22.88 12.32 10.56
675 1 21.12 12.32 12.32
676 1 22.88 10.56 12.32
677 1 21.12 10.56 14.08
678 1 22.88 12.32 14.08
679 1 21.12 12.32 15.84
680 1 22.88 10.56 15.84
681 1 21.12 14.08 0.0
682 1 22.88 15.84 0.0
683 1 21.12 15.84 1.76
684 1 22.88 14.08 1.76
685 1 21.12 14.08 3.52
686 1 22.88 15.84 3.52
687 1 21.12 15.84 5.28
688 1 22.88 14.08 5.28
689 1 21.12 14.08 7.04
690 1 22.88 15.84 7.04
691 1 21.12 15.84 8.8
692 1 22.88 14.08 8.8
693 1 21.12 14.08 10.56
694 1 22.88 15.84 10.56
695 1 21.12 15.84 12.32
696 1 22.88 14.08 12.32
697 1 21.12 14.08 14.08
698 1 22.88 15.84 14.08
699 1 21.12 15.84 15.84
700 1 22.88 14.08 15.84
701 1 24.64 0.0 0.0
702 1 26.4 1.76 0.0
703 1 24.64 1.76 1.76
704 1 26.4 0.0 1.76
705 1 24.64 0.0 3.52
706 1 26.4 1.76 3.52
707 1 24.64 1.76 5.28
708 1 26.4 0.0 5.28
709 1 24.64 0.0 7.04
710 1 26.4 1.76 7.04
711 1 24.64 1.76 8.8
712 1 26.4 0.0 8.8
713 1 24.64 0.0 10.56
714 1 26.4 1.76 10.56
715 1 24.64 1.76 12.32
716 1 26.4 0.0 12.32
717 1 24.64 0.0 14.08
718 1 26.4 1.76 14.08
719 1 24.64 1.76 15.84
720 1 26.4 0.0 15.84
721 1 24.64 3.52 0.0
722 1 26.4 5.28 0.0
723 1 24.64 5.28 1.76
724 1 26.4 3.52 1.76
725 1 24.64 3.52 3.52
726 1 26.4 5.28 3.52
727 1 24.64 5.28 5.28
728 1 26.4 3.52 5.28
729 1 24.64 3.52 7.04
730 1 26.4 5.28 7.04
731 1 24.64 5.28 8.8
732 1 26.4 3.52 8.8
733 1 24.64 3.52 10.56
734 1 26.4 5.28 10.56
735 1 24.64 5.28 12.32
736 1 26.4 3.52 12.32
737 1 24.64 3.52 14.08
738 1 26.4 5.28 14.08
739 1 24.64 5.28 15.84
740 1 26.4 3.52 15.84
741 1 24.64 7.04 0.0
742 1 26.4 8.8 0.0
743 1 24.64 8.8 1.76
744 1 26.4 7.04 1.76
745 1 24.64 7.04 3.52
746 1 26.4 8.8 3.52
747 1 24.64 8.8 5.28
748 1 26.4 7.04 5.28
749 1 24.64 7.04 7.04
750 1 26.4 8.8 7.04
751 1 24.64 8.8 8.8
752 1 26.4 7.04 8.8
753 1 24.64 7.04 10.56
754 1 26.4 8.8 10.56
755 1 24.64 8.8 12.32
756 1 26.4 7.04 12.32
757 1 24.64 7.04 14.08
758 1 26.4 8.8 14.08
759 1 24.64 8.8 15.84
760 1 26.4 7.04 15.84
761 1 24.64 10.56 0.0
762 1 26.4 12.32 0.0
763 1 24.64 12.32 1.76
764 1 26.4 10.56 1.76
765 1 24.64 10.56 3.52
766 1 26.4 12.32 3.52
767 1 24.64 12.32 5.28
768 1 26.4 10.56 5.28
769 1 24.64 10.56 7.04
770 1 26.4 12.32 7.04
771 1 24.64 12.32 8.8
772 1 26.4 10.56 8.8
773 1 24.64 10.56 10.56
774 1 26.4 12.32 10.56
775 1 24.64 12.32 12.32
776 1 26.4 10.56 12.32
777 1 24.64 10.56 14.08
778 1 26.4 12.32 14.08
779 1 24.64 12.32 15.84
780 1 26.4 10.56 15.84
781 1 24.64 14.08 0.0
782 1 26.4 15.84 0.0
783 1 24.64 15.84 1.76
784 1 26.4 14.08 1.76
785 1 24.64 14.08 3.52
786 1 26.4 15.84 3.52
787 1 24.64 15.84 5.28
788 1 26.4 14.08 5.28
789 1 24.64 14.08 7.04
790 1 26.4 15.84 7.04
791 1 24.64 15.84 8.8
792 1 26.4 14.08 8.8
793 1 24.64 14.08 10.56
794 1 26.4 15.84 10.56
795 1 24.64 15.84 12.32
796 1 26.4 14.08 12.32
797 1 24.64 14.08 14.08
798 1 26.4 15.84 14.08
799 1 24.64 15.84 15.84
800 1 26.4 14.08 15.84
801 1 28.16 0.0 0.0
802 1 29.92 1.76 0.0
803 1 28.16 1.76 1.76
804 1 29.92 0.0 1.76
805 1 28.16 0.0 3.52
806 1 29.92 1.76 3.52
807 1 28.16 1.76 5.28
808 1 29.92 0.0 5.28
809 1 28.16 0.0 7.04
810 1 29.92 1.76 7.04
811 1 28.16 1.76 8.8
812 1 29.92 0.0 8.8
813 1 28.16 0.0 10.56
814 1 29.92 1.76 10.56
815 1 28.16 1.76 12.32
816 1 29.92 0.0 12.32
817 1 28.16 0.0 14.08
818 1 29.92 1.76 14.08
819 1 28.16 1.76 15.84
820 1 29.92 0.0 15.84
821 1 28.16 3.52 0.0
822 1 29.92 5.28 0.0
823 1 28.16 5.28 1.76
824 1 29.92 3.52 1.76
825 1 28.16 3.52 3.52
826 1 29.92 5.28 3.52
827 1 28.16 5.28 5.28
828 1 29.92 3.52 5.28
829 1 28.16 3.52 7.04
830 1 29.92 5.28 7.04
831 1 28.16 5.28 8.8
832 1 29.92 3.52 8.8
833 1 28.16 3.52 10.56
834 1 29.92 5.28 10.56
835 1 28.16 5.28 12.32
836 1 29.92 3.52 12.32
837 1 28.16 3.52 14.08
838 1 29.92 5.28 14.08
839 1 28.16 5.28 15.84
840 1 29.92 3.52 15.84
841 1 28.16 7.04 0.0
842 1 29.92 8.8 0.0
843 1 28.16 8.8 1.76
844 1 29.92 7.04 1.76
845 1 28.16 7.04 3.52
846 1 29.92 8.8 3.52
847 1 28.16 8.8 5.28
848 1 29.92 7.04 5.28
849 1 28.16 7.04 7.04
850 1 29.92 8.8 7.04
851 1 28.16 8.8 8.8
852 1 29.92 7.04 8.8
853 1 28.16 7.04 10.56
854 1 29.92 8.8 10.56
855 1 28.16 8.8 12.32
856 1 29.92 7.04 12.32
857 1 28.16 7.04 14.08
858 1 29.92 8.8 14.08
859 1 28.16 8.8 15.84
860 1 29.92 7.04 15.84
861 1 28.16 10.56 0.0
862 1 29.92 12.32 0.0
863 1 28.16 12.32 1.76
864 1 29.92 10.56 1.76
865 1 28.16 10.56 3.52
866 1 29.92 12.32 3.52
867 1 28.16 12.32 5.28
868 1 29.92 10.56 5.28
869 1 28.16 10.56 7.04
870 1 29.92 12.32 7.04
871 1 28.16 12.32 8.8
872 1 29.92 10.56 8.8
873 1 28.16 10.56 10.56
874 1 29.92 12.32 10.56
875 1 28.16 12.32 12.32
876 1 29.92 10.56 12.32
877 1 28.16 10.56 14.08
878 1 29.92 12.32 14.08
879 1 28.16 12.32 15.84
880 1 29.92 10.56 15.84
881 1 28.16 14.08 0.0
882 1 29.92 15.84 0.0
883 1 28.16 15.84 1.76
884 1 29.92 14.08 1.76
885 1 28.16 14.08 3.52
886 1 29.92 15.84 3.52
887 1 28.16 15.84 5.28
888 1 29.92 14.08 5.28
889 1 28.16 14.08 7.04
890 1 29.92 15.84 7.04
891 1 28.16 15.84 8.8
892 1 29.92 14.08 8.8
893 1 28.16 14.08 10.56
894 1 29.92 15.84 10.56
895 1 28.16 15.84 12.32
896 1 29.92 14.08 12.32
897 1 28.16 14.08 14.08
898 1 29.92 15.84 14.08
899 1 28.16 15.84 15.84
900 1 29.92 14.08 15.84
901 1 31.68 0.0 0.0
902 1 33.44 1.76 0.0
903 1 31.68 1.76 1.76
904 1 33.44 0.0 1.76
905 1 31.68 0.0 3.52
906 1 33.44 1.76 3.52
907 1 31.68 1.76 5.28
908 1 33.44 0.0 5.28
909 1 31.68 0.0 7.04
910 1 33.44 1.76 7.04
911 1 31.68 1.76 8.8
912 1 33.44 0.0 8.8
913 1 31.68 0.0 10.56
914 1 33.44 1.76 10.56
915 1 31.68 1.76 12.32
916 1 33.44 0.0 12.32
917 1 31.68 0.0 14.08
918 1 33.44 1.76 14.08
919 1 31.68 1.76 15.84
920 1 33.44 0.0 15.84
921 1 31.68 3.52 0.0
922 1 33.44 5.28 0.0
923 1 31.68 5.28 1.76
924 1 33.44 3.52 1.76
925 1 31.68 3.52 3.52
926 1 33.44 5.28 3.52
927 1 31.68 5.28 5.28
928 1 33.44 3.52 5.28
929 1 31.68 3.52 7.04
930 1 33.44 5.28 7.04
931 1 31.68 5.28 8.8
932 1 33.44 3.52 8.8
933 1 31.68 3.52 10.56
934 1 33.44 5.28 10.56
935 1 31.68 5.28 12.32
936 1 33.44 3.52 12.32
937 1 31.68 3.52 14.08
938 1 33.44 5.28 14.08
939 1 31.68 5.28 15.84
940 1 33.44 3.52 15.84
941 1 31.68 7.04 0.0
942 1 33.44 8.8 0.0
943 1 31.68 8.8 1.76
944 1 33.44 7.04 1.76
945 1 31.68 7.04 3.52
946 1 33.44 8.8 3.52
947 1 31.68 8.8 5.28
948 1 33.44 7.04 5.28
949 1 31.68 7.04 7.04
950 1 33.44 8.8 7.04
951 1 31.68 8.8 8.8
952 1 33.44 7.04 8.8
953 1 31.68 7.04 10.56
954 1 33.44 8.8 10.56
955 1 31.68 8.8 12.32
956 1 33.44 7.04 12.32
957 1 31.68 7.04 14.08
958 1 33.44 8.8 14.08
959 1 31.68 8.8 15.84
960 1 33.44 7.04 15.84
961 1 31.68 10.56 0.0
962 1 33.44 12.32 0.0
963 1 31.68 12.32 1.76
964 1 33.44 10.56 1.76
965 1 31.68 10.56 3.52
966 1 33.44 12.32 3.52
967 1 31.68 12.32 5.28
968 1 33.44 10.56 5.28
969 1 31.68 10.56 7.04
970 1 33.44 12.32 7.04
971 1 31.68 12.32 8.8
972 1 33.44 10.56 8.8
973 1 31.68 10.56 10.56
974 1 33.44 12.32 10.56
975 1 31.68 12.32 12.32
976 1 33.44 10.56 12.32
977 1 31.68 10.56 14.08
978 1 33.44 12.32 14.08
979 1 31.68 12.32 15.84
980 1 33.44 10.56 15.84
981 1 31.68 14.08 0.0
982 1 33.44 15.84 0.0
983 1 31.68 15.84 1.76
984 1 33.44 14.08 1.76
985 1 31.68 14.08 3.52
986 1 33.44 15.84 3.52
987 1 31.68 15.84 5.28
988 1 33.44 14.08 5.28
989 1 31.68 14.08 7.04
990 1 33.44 15.84 7.04
991 1 31.68 15.84 8.8
992 1 33.44 14.08 8.8
993 1 31.68 14.08 10.56
994 1 33.44 15.84 10.56
995 1 31.68 15.84 12.32
996 1 33.44 14.08 12.32
997 1 31.68 14.08 14.08
998 1 33.44 15.84 14.08
999 1 31.68 15.84 15.84
1000 1 33.44 14.08 15.84
