LAMMPS Description

768 atoms
1 atom types

0.0 43.32 xlo xhi
0.0 14.44 ylo yhi
0.0 14.44 zlo zhi

Masses

1 63.55

Atoms # atomic

1 1 0.0 0.0 0.0
2 1 1.805 1.805 0.0
3 1 0.0 1.805 1.805
4 1 1.805 0.0 1.805
5 1 0.0 0.0 3.61
6 1 1.805 1.805 3.61
7 1 0.0 1.805 5.415
8 1 1.805 0.0 5.415
9 1 0.0 0.0 7.22
10 1 1.805 1.805 7.22
11 1 0.0 1.805 9.025
12 1 1.805 0.0 9.025
13 1 0.0 0.0 10.83
14 1 1.805 1.805 10.83
15 1 0.0 1.805 12.635
16 1 1.805 0.0 12.635
17 1 0.0 3.61 0.0
18 1 1.805 5.415 0.0
19 1 0.0 5.415 1.805
20 1 1.805 3.61 1.805
21 1 0.0 3.61 3.61
22 1 1.805 5.415 3.61
23 1 0.0 5.415 5.415
24 1 1.805 3.61 5.415
25 1 0.0 3.61 7.22
26 1 1.805 5.415 7.22
27 1 0.0 5.415 9.025
28 1 1.805 3.61 9.025
29 1 0.0 3.61 10.83
30 1 1.805 5.415 10.83
31 1 0.0 5.415 12.635
32 1 1.805 3.61 12.635
33 1 0.0 7.22 0.0
34 1 1.805 9.025 0.0
35 1 0.0 9.025 1.805
36 1 1.805 7.22 1.805
37 1 0.0 7.22 3.61
38 1 1.805 9.025 3.61
39 1 0.0 9.025 5.415
40 1 1.805 7.22 5.415
41 1 0.0 7.22 7.22
42 1 1.805 9.025 7.22
43 1 0.0 9.025 9.025
44 1 1.805 7.22 9.025
45 1 0.0 7.22 10.83
46 1 1.805 9.025 10.83
47 1 0.0 9.025 12.635
48 1 1.805 7.22 12.635
49 1 0.0 10.83 0.0
50 1 1.805 12.635 0.0
51 1 0.0 12.635 1.805
52 1 1.805 10.83 1.805
53 1 0.0 10.83 3.61
54 1 1.805 12.635 3.61
55 1 0.0 12.635 5.415
56 1 1.805 10.83 5.415
57 1 0.0 10.83 7.22
58 1 1.805 12.635 7.22
59 1 0.0 12.635 9.025
60 1 1.805 10.83 9.025
61 1 0.0 10.83 10.83
62 1 1.805 12.635 10.83
63 1 0.0 12.635 12.635
64 1 1.805 10.83 12.635
65 1 3.61 0.0 0.0
66 1 5.415 1.805 0.0
67 1 3.61 1.805 1.805
68 1 5.415 0.0 1.805
69 1 3.61 0.0 3.61
70 1 5.415 1.805 3.61
71 1 3.61 1.805 5.415
72 1 5.415 0.0 5.415
73 1 3.61 0.0 7.22
74 1 5.415 1.805 7.22
75 1 3.61 1.805 9.025
76 1 5.415 0.0 9.025
77 1 3.61 0.0 10.83
78 1 5.415 1.805 10.83
79 1 3.61 1.805 12.635
80 1 5.415 0.0 12.635
81 1 3.61 3.61 0.0
82 1 5.415 5.415 0.0
83 1 3.61 5.415 1.805
84 1 5.415 3.61 1.805
85 1 3.61 3.61 3.61
86 1 5.415 5.415 3.61
87 1 3.61 5.415 5.415
88 1 5.415 3.61 5.415
89 1 3.61 3.61 7.22
90 1 5.415 5.415 7.22
91 1 3.61 5.415 9.025
92 1 5.415 3.61 9.025
93 1 3.61 3.61 10.83
94 1 5.415 5.415 10.83
95 1 3.61 5.415 12.635
96 1 5.415 3.61 12.635
97 1 3.61 7.22 0.0
98 1 5.415 9.025 0.0
99 1 3.61 9.025 1.805
100 1 5.415 7.22 1.805
101 1 3.61 7.22 3.61
102 1 5.415 9.025 3.61
103 1 3.61 9.025 5.415
104 1 5.415 7.22 5.415
105 1 3.61 7.22 7.22
106 1 5.415 9.025 7.22
107 1 3.61 9.025 9.025
108 1 5.415 7.22 9.025
109 1 3.61 7.22 10.83
110 1 5.415 9.025 10.83
111 1 3.61 9.025 12.635
112 1 5.415 7.22 12.635
113 1 3.61 10.83 0.0
114 1 5.415 12.635 0.0
115 1 3.61 12.635 1.805
116 1 5.415 10.83 1.805
117 1 3.61 10.83 3.61
118 1 5.415 12.635 3.61
119 1 3.61 12.635 5.415
120 1 5.415 10.83 5.415
121 1 3.61 10.83 7.22
122 1 5.415 12.635 7.22
123 1 3.61 12.635 9.025
124 1 5.415 10.83 9.025
125 1 3.61 10.83 10.83
126 1 5.415 12.635 10.83
127 1 3.61 12.635 12.635
128 1 5.415 10.83 12.635
129 1 7.22 0.0 0.0
130 1 9.025 1.805 0.0
131 1 7.22 1.805 1.805
132 1 9.025 0.0 1.805
133 1 7.22 0.0 3.61
134 1 9.025 1.805 3.61
135 1 7.22 1.805 5.415
136 1 9.025 0.0 5.415
137 1 7.22 0.0 7.22
138 1 9.025 1.805 7.22
139 1 7.22 1.805 9.025
140 1 9.025 0.0 9.025
141 1 7.22 0.0 10.83
142 1 9.025 1.805 10.83
143 1 7.22 1.805 12.635
144 1 9.025 0.0 12.635
145 1 7.22 3.61 0.0
146 1 9.025 5.415 0.0
147 1 7.22 5.415 1.805
148 1 9.025 3.61 1.805
149 1 7.22 3.61 3.61
150 1 9.025 5.415 3.61
151 1 7.22 5.415 5.415
152 1 9.025 3.61 5.415
153 1 7.22 3.61 7.22
154 1 9.025 5.415 7.22
155 1 7.22 5.415 9.025
156 1 9.025 3.61 9.025
157 1 7.22 3.61 10.83
158 1 9.025 5.415 10.83
159 1 7.22 5.415 12.635
160 1 9.025 3.61 12.635
161 1 7.22 7.22 0.0
162 1 9.025 9.025 0.0
163 1 7.22 9.025 1.805
164 1 9.025 7.22 1.805
165 1 7.22 7.22 3.61
166 1 9.025 9.025 3.61
167 1 7.22 9.025 5.415
168 1 9.025 7.22 5.415
169 1 7.22 7.22 7.22
170 1 9.025 9.025 7.22
171 1 7.22 9.025 9.025
172 1 9.025 7.22 9.025
173 1 7.22 7.22 10.83
174 1 9.025 9.025 10.83
175 1 7.22 9.025 12.635
176 1 9.025 7.22 12.635
177 1 7.22 10.83 0.0
178 1 9.025 12.635 0.0
179 1 7.22 12.635 1.805
180 1 9.025 10.83 1.805
181 1 7.22 10.83 3.61
182 1 9.025 12.635 3.61
183 1 7.22 12.635 5.415
184 1 9.025 10.83 5.415
185 1 7.22 10.83 7.22
186 1 9.025 12.635 7.22
187 1 7.22 12.635 9.025
188 1 9.025 10.83 9.025
189 1 7.22 10.83 10.83
190 1 9.025 12.635 10.83
191 1 7.22 12.635 12.635
192 1 9.025 10.83 12.635
193 1 10.83 0.0 0.0
194 1 12.635 1.805 0.0
195 1 10.83 1.805 1.805
196 1 12.635 0.0 1.805
197 1 10.83 0.0 3.61
198 1 12.635 1.805 3.61
199 1 10.83 1.805 5.415
200 1 12.635 0.0 5.415
201 1 10.83 0.0 7.22
202 1 12.635 1.805 7.22
203 1 10.83 1.805 9.025
204 1 12.635 0.0 9.025
205 1 10.83 0.0 10.83
206 1 12.635 1.805 10.83
207 1 10.83 1.805 12.635
208 1 12.635 0.0 12.635
209 1 10.83 3.61 0.0
210 1 12.635 5.415 0.0
211 1 10.83 5.415 1.805
212 1 12.635 3.61 1.805
213 1 10.83 3.61 3.61
214 1 12.635 5.415 3.61
215 1 10.83 5.415 5.415
216 1 12.635 3.61 5.415
217 1 10.83 3.61 7.22
218 1 12.635 5.415 7.22
219 1 10.83 5.415 9.025
220 1 12.635 3.61 9.025
221 1 10.83 3.61 10.83
222 1 12.635 5.415 10.83
223 1 10.83 5.415 12.635
224 1 12.635 3.61 12.635
225 1 10.83 7.22 0.0
226 1 12.635 9.025 0.0
227 1 10.83 9.025 1.805
228 1 12.635 7.22 1.805
229 1 10.83 7.22 3.61
230 1 12.635 9.025 3.61
231 1 10.83 9.025 5.415
232 1 12.635 7.22 5.415
233 1 10.83 7.22 7.22
234 1 12.635 9.025 7.22
235 1 10.83 9.025 9.025
236 1 12.635 7.22 9.025
237 1 10.83 7.22 10.83
238 1 12.635 9.025 10.83
239 1 10.83 9.025 12.635
240 1 12.635 7.22 12.635
241 1 10.83 10.83 0.0
242 1 12.635 12.635 0.0
243 1 10.83 12.635 1.805
244 1 12.635 10.83 1.805
245 1 10.83 10.83 3.61
246 1 12.635 12.635 3.61
247 1 10.83 12.635 5.415
248 1 12.635 10.83 5.415
249 1 10.83 10.83 7.22
250 1 12.635 12.635 7.22
251 1 10.83 12.635 9.025
252 1 12.635 10.83 9.025
253 1 10.83 10.83 10.83
254 1 12.635 12.635 10.83
255 1 10.83 12.635 12.635
256 1 12.635 10.83 12.635
257 1 14.44 0.0 0.0
258 1 16.245 1.805 0.0
259 1 14.44 1.805 1.805
260 1 16.245 0.0 1.805
261 1 14.44 0.0 3.61
262 1 16.245 1.805 3.61
263 1 14.44 1.805 5.415
264 1 16.245 0.0 5.415
265 1 14.44 0.0 7.22
266 1 16.245 1.805 7.22
267 1 14.44 1.805 9.025
268 1 16.245 0.0 9.025
269 1 14.44 0.0 10.83
270 1 16.245 1.805 10.83
271 1 14.44 1.805 12.635
272 1 16.245 0.0 12.635
273 1 14.44 3.61 0.0
274 1 16.245 5.415 0.0
275 1 14.44 5.415 1.805
276 1 16.245 3.61 1.805
277 1 14.44 3.61 3.61
278 1 16.245 5.415 3.61
279 1 14.44 5.415 5.415
280 1 16.245 3.61 5.415
281 1 14.44 3.61 7.22
282 1 16.245 5.415 7.22
283 1 14.44 5.415 9.025
284 1 16.245 3.61 9.025
285 1 14.44 3.61 10.83
286 1 16.245 5.415 10.83
287 1 14.44 5.415 12.635
288 1 16.245 3.61 12.635
289 1 14.44 7.22 0.0
290 1 16.245 9.025 0.0
291 1 14.44 9.025 1.805
292 1 16.245 7.22 1.805
293 1 14.44 7.22 3.61
294 1 16.245 9.025 3.61
295 1 14.44 9.025 5.415
296 1 16.245 7.22 5.415
297 1 14.44 7.22 7.22
298 1 16.245 9.025 7.22
299 1 14.44 9.025 9.025
300 1 16.245 7.22 9.025
301 1 14.44 7.22 10.83
302 1 16.245 9.025 10.83
303 1 14.44 9.025 12.635
304 1 16.245 7.22 12.635
305 1 14.44 10.83 0.0
306 1 16.245 12.635 0.0
307 1 14.44 12.635 1.805
308 1 16.245 10.83 1.805
309 1 14.44 10.83 3.61
310 1 16.245 12.635 3.61
311 1 14.44 12.635 5.415
312 1 16.245 10.83 5.415
313 1 14.44 10.83 7.22
314 1 16.245 12.635 7.22
315 1 14.44 12.635 9.025
316 1 16.245 10.83 9.025
317 1 14.44 10.83 10.83
318 1 16.245 12.635 10.83
319 1 14.44 12.635 12.635
320 1 16.245 10.83 12.635
321 1 18.05 0.0 0.0
322 1 19.855 1.805 0.0
323 1 18.05 1.805 1.805
324 1 19.855 0.0 1.805
325 1 18.05 0.0 3.61
326 1 19.855 1.805 3.61
327 1 18.05 1.805 5.415
328 1 19.855 0.0 5.415
329 1 18.05 0.0 7.22
330 1 19.855 1.805 7.22
331 1 18.05 1.805 9.025
332 1 19.855 0.0 9.025
333 1 18.05 0.0 10.83
334 1 19.855 1.805 10.83
335 1 18.05 1.805 12.635
336 1 19.855 0.0 12.635
337 1 18.05 3.61 0.0
338 1 19.855 5.415 0.0
339 1 18.05 5.415 1.805
340 1 19.855 3.61 1.805
341 1 18.05 3.61 3.61
342 1 19.855 5.415 3.61
343 1 18.05 5.415 5.415
344 1 19.855 3.61 5.415
345 1 18.05 3.61 7.22
346 1 19.855 5.415 7.22
347 1 18.05 5.415 9.025
348 1 19.855 3.61 9.025
349 1 18.05 3.61 10.83
350 1 19.855 5.415 10.83
351 1 18.05 5.415 12.635
352 1 19.855 3.61 12.635
353 1 18.05 7.22 0.0
354 1 19.855 9.025 0.0
355 1 18.05 9.025 1.805
356 1 19.855 7.22 1.805
357 1 18.05 7.22 3.61
358 1 19.855 9.025 3.61
359 1 18.05 9.025 5.415
360 1 19.855 7.22 5.415
361 1 18.05 7.22 7.22
362 1 19.855 9.025 7.22
363 1 18.05 9.025 9.025
364 1 19.855 7.22 9.025
365 1 18.05 7.22 10.83
366 1 19.855 9.025 10.83
367 1 18.05 9.025 12.635
368 1 19.855 7.22 12.635
369 1 18.05 10.83 0.0
370 1 19.855 12.635 0.0
371 1 18.05 12.635 1.805
372 1 19.855 10.83 1.805
373 1 18.05 10.83 3.61
374 1 19.855 12.635 3.61
375 1 18.05 12.635 5.415
376 1 19.855 10.83 5.415
377 1 18.05 10.83 7.22
378 1 19.855 12.635 7.22
379 1 18.05 12.635 9.025
380 1 19.855 10.83 9.025
381 1 18.05 10.83 10.83
382 1 19.855 12.635 10.83
383 1 18.05 12.635 12.635
384 1 19.855 10.83 12.635
385 1 21.66 0.0 0.0
386 1 23.465 1.805 0.0
387 1 21.66 1.805 1.805
388 1 23.465 0.0 1.805
389 1 21.66 0.0 3.61
390 1 23.465 1.805 3.61
391 1 21.66 1.805 5.415
392 1 23.465 0.0 5.415
393 1 21.66 0.0 7.22
394 1 23.465 1.805 7.22
395 1 21.66 1.805 9.025
396 1 23.465 0.0 9.025
397 1 21.66 0.0 10.83
398 1 23.465 1.805 10.83
399 1 21.66 1.805 12.635
400 1 23.465 0.0 12.635
401 1 21.66 3.61 0.0
402 1 23.465 5.415 0.0
403 1 21.66 5.415 1.805
404 1 23.465 3.61 1.805
405 1 21.66 3.61 3.61
406 1 23.465 5.415 3.61
407 1 21.66 5.415 5.415
408 1 23.465 3.61 5.415
409 1 21.66 3.61 7.22
410 1 23.465 5.415 7.22
411 1 21.66 5.415 9.025
412 1 23.465 3.61 9.025
413 1 21.66 3.61 10.83
414 1 23.465 5.415 10.83
415 1 21.66 5.415 12.635
416 1 23.465 3.61 12.635
417 1 21.66 7.22 0.0
418 1 23.465 9.025 0.0
419 1 21.66 9.025 1.805
420 1 23.465 7.22 1.805
421 1 21.66 7.22 3.61
422 1 23.465 9.025 3.61
423 1 21.66 9.025 5.415
424 1 23.465 7.22 5.415
425 1 21.66 7.22 7.22
426 1 23.465 9.025 7.22
427 1 21.66 9.025 9.025
428 1 23.465 7.22 9.025
429 1 21.66 7.22 10.83
430 1 23.465 9.025 10.83
431 1 21.66 9.025 12.635
432 1 23.465 7.22 12.635
433 1 21.66 10.83 0.0
434 1 23.465 12.635 0.0
435 1 21.66 12.635 1.805
436 1 23.465 10.83 1.805
437 1 21.66 10.83 3.61
438 1 23.465 12.635 3.61
439 1 21.66 12.635 5.415
440 1 23.465 10.83 5.415
441 1 21.66 10.83 7.22
442 1 23.465 12.635 7.22
443 1 21.66 12.635 9.025
444 1 23.465 10.83 9.025
445 1 21.66 10.83 10.83
446 1 23.465 12.635 10.83
447 1 21.66 12.635 12.635
448 1 23.465 10.83 12.635
449 1 25.27 0.0 0.0
450 1 27.075 1.805 0.0
451 1 25.27 1.805 1.805
452 1 27.075 0.0 1.805
453 1 25.27 0.0 3.61
454 1 27.075 1.805 3.61
455 1 25.27 1.805 5.415
456 1 27.075 0.0 5.415
457 1 25.27 0.0 7.22
458 1 27.075 1.805 7.22
459 1 25.27 1.805 9.025
460 1 27.075 0.0 9.025
461 1 25.27 0.0 10.83
462 1 27.075 1.805 10.83
463 1 25.27 1.805 12.635
464 1 27.075 0.0 12.635
465 1 25.27 3.61 0.0
466 1 27.075 5.415 0.0
467 1 25.27 5.415 1.805
468 1 27.075 3.61 1.805
469 1 25.27 3.61 3.61
470 1 27.075 5.415 3.61
471 1 25.27 5.415 5.415
472 1 27.075 3.61 5.415
473 1 25.27 3.61 7.22
474 1 27.075 5.415 7.22
475 1 25.27 5.415 9.025
476 1 27.075 3.61 9.025
477 1 25.27 3.61 10.83
478 1 27.075 5.415 10.83
479 1 25.27 5.415 12.635
480 1 27.075 3.61 12.635
481 1 25.27 7.22 0.0
482 1 27.075 9.025 0.0
483 1 25.27 9.025 1.805
484 1 27.075 7.22 1.805
485 1 25.27 7.22 3.61
486 1 27.075 9.025 3.61
487 1 25.27 9.025 5.415
488 1 27.075 7.22 5.415
489 1 25.27 7.22 7.22
490 1 27.075 9.025 7.22
491 1 25.27 9.025 9.025
492 1 27.075 7.22 9.025
493 1 25.27 7.22 10.83
494 1 27.075 9.025 10.83
495 1 25.27 9.025 12.635
496 1 27.075 7.22 12.635
497 1 25.27 10.83 0.0
498 1 27.075 12.635 0.0
499 1 25.27 12.635 1.805
500 1 27.075 10.83 1.805
501 1 25.27 10.83 3.61
502 1 27.075 12.635 3.61
503 1 25.27 12.635 5.415
504 1 27.075 10.83 5.415
505 1 25.27 10.83 7.22
506 1 27.075 12.635 7.22
507 1 25.27 12.635 9.025
508 1 27.075 10.83 9.025
509 1 25.27 10.83 10.83
510 1 27.075 12.635 10.83
511 1 25.27 12.635 12.635
512 1 27.075 10.83 12.635
513 1 28.88 0.0 0.0
514 1 30.685 1.805 0.0
515 1 28.88 1.805 1.805
516 1 30.685 0.0 1.805
517 1 28.88 0.0 3.61
518 1 30.685 1.805 3.61
519 1 28.88 1.805 5.415
520 1 30.685 0.0 5.415
521 1 28.88 0.0 7.22
522 1 30.685 1.805 7.22
523 1 28.88 1.805 9.025
524 1 30.685 0.0 9.025
525 1 28.88 0.0 10.83
526 1 30.685 1.805 10.83
527 1 28.88 1.805 12.635
528 1 30.685 0.0 12.635
529 1 28.88 3.61 0.0
530 1 30.685 5.415 0.0
531 1 28.88 5.415 1.805
532 1 30.685 3.61 1.805
533 1 28.88 3.61 3.61
534 1 30.685 5.415 3.61
535 1 28.88 5.415 5.415
536 1 30.685 3.61 5.415
537 1 28.88 3.61 7.22
538 1 30.685 5.415 7.22
539 1 28.88 5.415 9.025
540 1 30.685 3.61 9.025
541 1 28.88 3.61 10.83
542 1 30.685 5.415 10.83
543 1 28.88 5.415 12.635
544 1 30.685 3.61 12.635
545 1 28.88 7.22 0.0
546 1 30.685 9.025 0.0
547 1 28.88 9.025 1.805
548 1 30.685 7.22 1.805
549 1 28.88 7.22 3.61
550 1 30.685 9.025 3.61
551 1 28.88 9.025 5.415
552 1 30.685 7.22 5.415
553 1 28.88 7.22 7.22
554 1 30.685 9.025 7.22
555 1 28.88 9.025 9.025
556 1 30.685 7.22 9.025
557 1 28.88 7.22 10.83
558 1 30.685 9.025 10.83
559 1 28.88 9.025 12.635
560 1 30.685 7.22 12.635
561 1 28.88 10.83 0.0
562 1 30.685 12.635 0.0
563 1 28.88 12.635 1.805
564 1 30.685 10.83 1.805
565 1 28.88 10.83 3.61
566 1 30.685 12.635 3.61
567 1 28.88 12.635 5.415
568 1 30.685 10.83 5.415
569 1 28.88 10.83 7.22
570 1 30.685 12.635 7.22
571 1 28.88 12.635 9.025
572 1 30.685 10.83 9.025
573 1 28.88 10.83 10.83
574 1 30.685 12.635 10.83
575 1 28.88 12.635 12.635
576 1 30.685 10.83 12.635
577 1 32.49 0.0 0.0
578 1 34.295 1.805 0.0
579 1 32.49 1.805 1.805
580 1 34.295 0.0 1.805
581 1 32.49 0.0 3.61
582 1 34.295 1.805 3.61
583 1 32.49 1.805 5.415
584 1 34.295 0.0 5.415
585 1 32.49 0.0 7.22
586 1 34.295 1.805 7.22
587 1 32.49 1.805 9.025
588 1 34.295 0.0 9.025
589 1 32.49 0.0 10.83
590 1 34.295 1.805 10.83
591 1 32.49 1.805 12.635
592 1 34.295 0.0 12.635
593 1 32.49 3.61 0.0
594 1 34.295 5.415 0.0
595 1 32.49 5.415 1.805
596 1 34.295 3.61 1.805
597 1 32.49 3.61 3.61
598 1 34.295 5.415 3.61
599 1 32.49 5.415 5.415
600 1 34.295 3.61 5.415
601 1 32.49 3.61 7.22
602 1 34.295 5.415 7.22
603 1 32.49 5.415 9.025
604 1 34.295 3.61 9.025
605 1 32.49 3.61 10.83
606 1 34.295 5.415 10.83
607 1 32.49 5.415 12.635
608 1 34.295 3.61 12.635
609 1 32.49 7.22 0.0
610 1 34.295 9.025 0.0
611 1 32.49 9.025 1.805
612 1 34.295 7.22 1.805
613 1 32.49 7.22 3.61
614 1 34.295 9.025 3.61
615 1 32.49 9.025 5.415
616 1 34.295 7.22 5.415
617 1 32.49 7.22 7.22
618 1 34.295 9.025 7.22
619 1 32.49 9.025 9.025
620 1 34.295 7.22 9.025
621 1 32.49 7.22 10.83
622 1 34.295 9.025 10.83
623 1 32.49 9.025 12.635
624 1 34.295 7.22 12.635
625 1 32.49 10.83 0.0
626 1 34.295 12.635 0.0
627 1 32.49 12.635 1.805
628 1 34.295 10.83 1.805
629 1 32.49 10.83 3.61
630 1 34.295 12.635 3.61
631 1 32.49 12.635 5.415
632 1 34.295 10.83 5.415
633 1 32.49 10.83 7.22
634 1 34.295 12.635 7.22
635 1 32.49 12.635 9.025
636 1 34.295 10.83 9.025
637 1 32.49 10.83 10.83
638 1 34.295 12.635 10.83
639 1 32.49 12.635 12.635
640 1 34.295 10.83 12.635
641 1 36.1 0.0 0.0
642 1 37.905 1.805 0.0
643 1 36.1 1.805 1.805
644 1 37.905 0.0 1.805
645 1 36.1 0.0 3.61
646 1 37.905 1.805 3.61
647 1 36.1 1.805 5.415
648 1 37.905 0.0 5.415
649 1 36.1 0.0 7.22
650 1 37.905 1.805 7.22
651 1 36.1 1.805 9.025
652 1 37.905 0.0 9.025
653 1 36.1 0.0 10.83
654 1 37.905 1.805 10.83
655 1 36.1 1.805 12.635
656 1 37.905 0.0 12.635
657 1 36.1 3.61 0.0
658 1 37.905 5.415 0.0
659 1 36.1 5.415 1.805
660 1 37.905 3.61 1.805
661 1 36.1 3.61 3.61
662 1 37.905 5.415 3.61
663 1 36.1 5.415 5.415
664 1 37.905 3.61 5.415
665 1 36.1 3.61 7.22
666 1 37.905 5.415 7.22
667 1 36.1 5.415 9.025
668 1 37.905 3.61 9.025
669 1 36.1 3.61 10.83
670 1 37.905 5.415 10.83
671 1 36.1 5.415 12.635
672 1 37.905 3.61 12.635
673 1 36.1 7.22 0.0
674 1 37.905 9.025 0.0
675 1 36.1 9.025 1.805
676 1 37.905 7.22 1.805
677 1 36.1 7.22 3.61
678 1 37.905 9.025 3.61
679 1 36.1 9.025 5.415
680 1 37.905 7.22 5.415
681 1 36.1 7.22 7.22
682 1 37.905 9.025 7.22
683 1 36.1 9.025 9.025
684 1 37.905 7.22 9.025
685 1 36.1 7.22 10.83
686 1 37.905 9.025 10.83
687 1 36.1 9.025 12.635
688 1 37.905 7.22 12.635
689 1 36.1 10.83 0.0
690 1 37.905 12.635 0.0
691 1 36.1 12.635 1.805
692 1 37.905 10.83 1.805
693 1 36.1 10.83 3.61
694 1 37.905 12.635 3.61
695 1 36.1 12.635 5.415
696 1 37.905 10.83 5.415
697 1 36.1 10.83 7.22
698 1 37.905 12.635 7.22
699 1 36.1 12.635 9.025
700 1 37.905 10.83 9.025
701 1 36.1 10.83 10.83
702 1 37.905 12.635 10.83
703 1 36.1 12.635 12.635
704 1 37.905 10.83 12.635
705 1 39.71 0.0 0.0
706 1 41.515 1.805 0.0
707 1 39.71 1.805 1.805
708 1 41.515 0.0 1.805
709 1 39.71 0.0 3.61
710 1 41.515 1.805 3.61
711 1 39.71 1.805 5.415
712 1 41.515 0.0 5.415
713 1 39.71 0.0 7.22
714 1 41.515 1.805 7.22
715 1 39.71 1.805 9.025
716 1 41.515 0.0 9.025
717 1 39.71 0.0 10.83
718 1 41.515 1.805 10.83
719 1 39.71 1.805 12.635
720 1 41.515 0.0 12.635
721 1 39.71 3.61 0.0
722 1 41.515 5.415 0.0
723 1 39.71 5.415 1.805
724 1 41.515 3.61 1.805
725 1 39.71 3.61 3.61
726 1 41.515 5.415 3.61
727 1 39.71 5.415 5.415
728 1 41.515 3.61 5.415
729 1 39.71 3.61 7.22
730 1 41.515 5.415 7.22
731 1 39.71 5.415 9.025
732 1 41.515 3.61 9.025
733 1 39.71 3.61 10.83
734 1 41.515 5.415 10.83
735 1 39.71 5.415 12.635
736 1 41.515 3.61 12.635
737 1 39.71 7.22 0.0
738 1 41.515 9.025 0.0
739 1 39.71 9.025 1.805
740 1 41.515 7.22 1.805
741 1 39.71 7.22 3.61
742 1 41.515 9.025 3.61
743 1 39.71 9.025 5.415
744 1 41.515 7.22 5.415
745 1 39.71 7.22 7.22
746 1 41.515 9.025 7.22
747 1 39.71 9.025 9.025
748 1 41.515 7.22 9.025
749 1 39.71 7.22 10.83
750 1 41.515 9.025 10.83
751 1 39.71 9.025 12.635
752 1 41.515 7.22 12.635
753 1 39.71 10.83 0.0
754 1 41.515 12.635 0.0
755 1 39.71 12.635 1.805
756 1 41.515 10.83 1.805
757 1 39.71 10.83 3.61
758 1 41.515 12.635 3.61
759 1 39.71 12.635 5.415
760 1 41.515 10.83 5.415
761 1 39.71 10.83 7.22
762 1 41.515 12.635 7.22
763 1 39.71 12.635 9.025
764 1 41.515 10.83 9.025
765 1 39.71 10.83 10.83
766 1 41.515 12.635 10.83
767 1 39.71 12.635 12.635
768 1 41.515 10.83 12.635
