LAMMPS data file via write_data, version 17 Apr 2024, timestep = 1000, units = metal

1280 atoms
1 atom types

-1.7614888709184777 72.3022706075733 xlo xhi
0 14.44 ylo yhi
0 14.44 zlo zhi

Masses

1 63.546

Atoms # atomic

3 1 -1.6383944872502625 1.5378172669102077 1.845942302619773 0 0 0
6 1 0.23937132547372936 1.6914216872576362 3.6438021934982756 0 0 0
20 1 0.27595635974937416 3.4608934849219852 1.7973301992961852 0 0 0
21 1 -1.7171949478929476 3.6441341096874074 3.5037653869641687 0 0 0
85 1 2.105281675432261 3.6427239441737633 3.400000749486119 0 0 0
67 1 2.117002634695305 1.603523012785343 1.7622795148216206 0 0 0
2 1 0.23432492611917002 1.611603705548502 5.822223411655614e-05 0 0 0
70 1 4.020379215795769 1.8130720820115156 3.4497664067025005 0 0 0
84 1 3.8411605575002845 3.4657628910987897 1.704503419084463 0 0 0
149 1 5.901174828595251 3.5437482060502328 3.518719499679915 0 0 0
131 1 5.9185343635209025 1.9320865899352269 1.5235685095845626 0 0 0
68 1 4.079607853096989 0.021360570435305704 1.5720472553980018 0 0 0
133 1 5.694639317722672 0.06918367946233173 3.4541555779660995 0 0 0
134 1 7.659047891526081 1.7915480311434901 3.7641230395526524 0 0 0
148 1 7.838840361410026 3.5449684402238604 1.877249835076663 0 0 0
195 1 9.68656495994876 1.7705913395804815 1.7819031899400808 0 0 0
213 1 9.571225363353456 3.3974774280747737 3.816252262315952 0 0 0
132 1 7.750145574505571 0.053734183842766736 1.8538657929650981 0 0 0
197 1 9.54148438403194 0.0800735480024844 3.4894422650634342 0 0 0
198 1 11.470082672616595 1.7547165046908964 3.5854432229855937 0 0 0
212 1 11.427744440300312 3.628732652161829 1.7944391424753414 0 0 0
259 1 13.362930541265175 1.7199585133261976 1.8630111126487714 0 0 0
277 1 13.381167585973781 3.505499642494121 3.6052800079448377 0 0 0
273 1 13.373713100967638 3.5846552977998116 0.21173530124659562 0 0 0
194 1 11.55828689039262 1.8451750131081337 0.15606848732869882 0 0 0
257 1 13.36163366448713 0.03978972943236318 0.03773794414332338 0 0 0
262 1 15.356510423895749 1.8190020151073985 3.4880355195540758 0 0 0
276 1 15.250460757689849 3.588333651595336 1.8597366386628351 0 0 0
323 1 17.183754005072625 1.7870706443524007 1.8109574152901746 0 0 0
341 1 17.09488503393968 3.60598621860557 3.5493221070119567 0 0 0
325 1 17.09288436095416 0.028380866145591235 3.659551682075779 0 0 0
326 1 18.975683270513876 1.6772402246737854 3.7110078622955567 0 0 0
340 1 18.95961247827985 3.4892635554808233 1.9669367701499034 0 0 0
387 1 20.778611410003393 1.6789968750949364 1.7364382933348113 0 0 0
405 1 20.861310134928242 3.3888186045986486 3.53687080047293 0 0 0
324 1 18.97613827218282 0.051293346094840986 1.813548317809697 0 0 0
404 1 22.859052346237377 3.5272424677163188 1.8627549367105618 0 0 0
390 1 22.63772029093859 1.5172581076562528 3.5122530759524664 0 0 0
451 1 24.622031865916362 1.6610838366213074 1.9010604116868188 0 0 0
469 1 24.706564622053243 3.5397662332707083 3.625470589937254 0 0 0
386 1 22.72423461275581 1.7285917269704516 0.09294089214654298 0 0 0
465 1 24.5717431117161 3.4789546962093434 0.003211457514307625 0 0 0
454 1 26.610629679484507 1.7709437660768275 3.5367014884145207 0 0 0
468 1 26.655773609228866 3.5454428469397015 1.8914115242124816 0 0 0
515 1 28.48085014534201 1.8074763740683166 1.9184899014326917 0 0 0
533 1 28.63017888328611 3.489060615891962 3.6638101373580056 0 0 0
450 1 26.599550511351442 1.6407811094474731 0.04671851373540387 0 0 0
513 1 28.60656559764809 0.17861653707004496 0.07305028270330988 0 0 0
518 1 30.448087905980124 1.737893530215335 3.56296095909395 0 0 0
532 1 30.42964966312732 3.634381235201481 1.769733321620169 0 0 0
579 1 32.397703539317895 1.8811014982205596 1.8344668739655665 0 0 0
597 1 32.426701186794574 3.651280088884938 3.541136922289178 0 0 0
581 1 32.318840633178276 0.04866484052510639 3.64757677516834 0 0 0
514 1 30.434611378784926 1.841951969667179 0.15661559237920952 0 0 0
582 1 34.35126621864539 1.7410203037515473 3.573325956285268 0 0 0
596 1 34.25796430351669 3.637085938888954 1.7557135728213116 0 0 0
643 1 36.141877363655794 1.8001385044285674 1.6852393679438207 0 0 0
661 1 36.00015499196259 3.552258661350065 3.5104665871577776 0 0 0
580 1 34.006900032918516 0.07229066465352064 1.6649439064749934 0 0 0
657 1 36.331208812871424 3.7076365827315527 0.022335064319452667 0 0 0
646 1 38.158116779032454 1.7173494872868325 3.4937994148951432 0 0 0
660 1 37.996576672096516 3.599015082488319 1.7042312121409602 0 0 0
642 1 38.198116511365754 1.6453699220335005 0.08032794090652123 0 0 0
707 1 40.148869777507926 1.9358100498300013 1.800305025802456 0 0 0
725 1 39.98824098015332 3.843622416408143 3.550478839830963 0 0 0
721 1 40.01401087396683 3.7114198279896744 0.09764718060560068 0 0 0
710 1 41.796732860500285 1.9997783500020632 3.766200282781119 0 0 0
724 1 41.97827700820414 3.716060466070611 1.7408089021404085 0 0 0
771 1 43.76592572831607 1.900321798931206 1.8246976074366366 0 0 0
789 1 43.749311252970934 3.6898002318051955 3.613398259496791 0 0 0
773 1 43.83373304877337 0.17574069166152803 3.6120411926650444 0 0 0
706 1 41.93239336625281 1.6708952016477618 0.0829164053743183 0 0 0
774 1 45.87744204844158 1.6847107229340437 3.66162829601251 0 0 0
788 1 45.64881993767848 3.635984910675484 1.9869577284789868 0 0 0
835 1 47.6656173868991 1.7363715190317448 1.9135771568036106 0 0 0
853 1 47.730838509916346 3.5912946609258856 3.6754608648052622 0 0 0
770 1 45.77476341859053 1.7701912576989802 0.3304731515106154 0 0 0
849 1 47.434418410106076 3.6330544690664905 0.0992888972428276 0 0 0
772 1 45.73095932566795 0.028818613398509454 1.980680509568131 0 0 0
838 1 49.46881003640036 1.883014371641619 3.662227839741565 0 0 0
852 1 49.26972285484841 3.736101997114837 1.8739945217252874 0 0 0
917 1 51.44930009799146 3.7299016155188047 3.648932368723717 0 0 0
899 1 51.27539963052442 1.904344270011945 1.9473068732750785 0 0 0
834 1 49.45280788841524 1.7657053413023758 0.12257475361821432 0 0 0
913 1 51.366485020660164 3.6181700110187904 0.032129848425864936 0 0 0
902 1 53.34850214456256 1.7633443382764091 3.5846154547958804 0 0 0
916 1 53.29272441362949 3.654682554950911 1.8678218530415076 0 0 0
963 1 55.18342462539366 1.7642388037021386 1.904334895181519 0 0 0
981 1 55.24339187507668 3.6181472185518553 3.65849291970746 0 0 0
900 1 53.227836728203016 0.015907604579022565 1.8293108872046762 0 0 0
965 1 55.12835902929901 0.1405596385831287 3.7267922478170683 0 0 0
977 1 55.05766858579183 3.546417086048196 0.03497896325770279 0 0 0
898 1 53.28328044625868 1.963293000853309 0.029434708609751507 0 0 0
966 1 57.09621631667214 1.7267615009488049 3.7186154762255854 0 0 0
980 1 57.14695835935484 3.533856873057857 1.7855006560651785 0 0 0
1027 1 58.93521925600196 1.754386227366279 2.002450832199312 0 0 0
1045 1 58.88212682325442 3.6972453699818173 3.6207266288500253 0 0 0
1041 1 59.0053941792946 3.4073454967378676 0.006650330250705034 0 0 0
1025 1 59.014273299792215 0.09030414521744884 0.06673012698959302 0 0 0
1030 1 60.68042562012164 1.8126261303568925 3.72969431454356 0 0 0
1044 1 60.69598080598307 3.72198288466161 1.7568036007391525 0 0 0
1091 1 62.701818555995544 1.7636054984747962 2.032410116135706 0 0 0
1109 1 62.42866469270416 3.574735090722853 3.6643984631137645 0 0 0
1105 1 62.571312379277465 3.5988197674653013 0.19029675898981796 0 0 0
1108 1 64.49491694103962 3.579645928894547 2.0155755506140336 0 0 0
1094 1 64.5979095772223 1.9040420726385607 3.774597841405873 0 0 0
1155 1 66.33446640472634 1.9436432222258742 1.8373781842495485 0 0 0
1173 1 66.49320425644892 3.699901421125479 3.5663172105356344 0 0 0
1172 1 68.32998345145216 3.6694189542667255 1.7091483847086297 0 0 0
1158 1 68.30686742265803 1.7998398869264955 3.504148979798231 0 0 0
1157 1 66.49212651984004 0.04834930224457767 3.6292509809352493 0 0 0
1092 1 64.6795902020653 0.2155201227476743 1.7732093705488647 0 0 0
1153 1 66.54081365176633 0.18229520397388257 0.024742183051855215 0 0 0
1156 1 68.27008612830568 0.013793126030019979 1.8296412056545386 0 0 0
1090 1 64.62474193357075 1.920942528360343 0.05411640477261871 0 0 0
1219 1 70.18997027453025 1.9389617567567592 1.8142723308478814 0 0 0
1222 1 72.01538296662788 1.887457292221601 3.5823456696861062 0 0 0
1236 1 72.06330819970738 3.707128452560051 1.693789818807328 0 0 0
1237 1 70.22121883226447 3.7045909402304447 3.597334042157589 0 0 0
1221 1 70.07502813866506 0.1550560345526142 3.5899706199220267 0 0 0
1220 1 72.03978712817315 0.09319015653486042 1.726885750181598 0 0 0
19 1 -1.7542688709184777 5.337214281227259 1.7108801799508646 0 0 0
22 1 0.14660298809373734 5.408676961582408 3.574344094329332 0 0 0
35 1 -1.5165141234273425 9.201912011030036 1.7237284430127868 0 0 0
36 1 0.13856941998471586 7.049295025189539 1.760916427410193 0 0 0
37 1 -1.6492384406181546 7.166110085509551 3.406011188240677 0 0 0
38 1 0.19264945050765542 9.098684217667268 3.603247870562812 0 0 0
99 1 1.992851289925996 8.962448600695728 1.7766528920408975 0 0 0
83 1 1.9663581395715128 5.324710721755566 1.633281780618099 0 0 0
101 1 2.1144639809240022 7.148052969003612 3.4634773672596255 0 0 0
86 1 3.9046359106809496 5.33524892285329 3.433915967487235 0 0 0
100 1 4.002668617498774 7.237361713691016 1.697625476200084 0 0 0
102 1 3.989685661002852 9.029109119581115 3.3892037773674915 0 0 0
147 1 5.825084717756658 5.23073198411417 1.636299416462847 0 0 0
163 1 5.965827429189218 8.945352804894918 1.8074215809014191 0 0 0
165 1 5.829101665991871 7.05975556814281 3.585985580585044 0 0 0
97 1 2.2255000773081233 7.083629212602042 0.01326957063613211 0 0 0
98 1 3.93074487756404 9.077105770516695 0.07226768455449854 0 0 0
150 1 7.716350510224205 5.4047645140821 3.554274679881019 0 0 0
164 1 7.667514534500751 7.150947828531534 1.8472629928605615 0 0 0
166 1 7.68791307649159 9.039339167568617 3.60622773933452 0 0 0
211 1 9.50127645501587 5.3880705076665745 1.7723648399546508 0 0 0
227 1 9.489978720419003 8.918054577106398 1.8407887666531657 0 0 0
229 1 9.523405863438311 7.173621246112922 3.590583080540214 0 0 0
225 1 9.591912937042652 7.124028187686931 0.08745608372900204 0 0 0
214 1 11.32116986290886 5.341070463656426 3.5926290955641367 0 0 0
228 1 11.347669325871827 7.137385001272874 1.9128476393573757 0 0 0
230 1 11.359295046022092 9.121835917482334 3.582580532316802 0 0 0
275 1 13.162940817231323 5.299417362728078 1.900676593984344 0 0 0
291 1 13.251433276118911 8.779265706463686 1.9300843185566734 0 0 0
293 1 13.22439272852923 7.107340298376393 3.6206003964120237 0 0 0
289 1 13.283270808708528 7.065064105223884 0.1774484874388533 0 0 0
226 1 11.50949888425462 8.90743838890171 0.13967738517763356 0 0 0
278 1 15.145360808517342 5.248489436072936 3.63068378732305 0 0 0
292 1 15.233766872075265 6.88640597082928 1.8450725998265 0 0 0
294 1 15.208319322588114 8.85081046042584 3.747772446234836 0 0 0
339 1 17.162476142305213 5.267160893555131 1.664168521295755 0 0 0
355 1 17.121838969470684 8.965323687368702 1.9275060687842407 0 0 0
357 1 17.12840499291403 7.116330028935037 3.7442954146497907 0 0 0
290 1 15.01050238286347 8.88630919985329 0.21858756887649092 0 0 0
342 1 19.045461092502958 5.4433870556291755 3.613282795364501 0 0 0
356 1 18.928451850573126 7.246250769747012 1.90662077008836 0 0 0
358 1 18.97547312569066 8.934889641212278 3.6602560718581496 0 0 0
403 1 20.826707172205513 5.359776558568752 1.8421552120734934 0 0 0
419 1 20.912875244995817 9.00989402189187 1.8546937002515462 0 0 0
421 1 20.86260631924933 7.056125755499317 3.622348442299695 0 0 0
417 1 21.034311383933215 7.1417675113388315 0.25253041626115197 0 0 0
338 1 19.095454012180138 5.295982285872209 0.09481746494598543 0 0 0
406 1 22.736017470780425 5.218374621448162 3.6358798864656245 0 0 0
422 1 22.86734966847049 8.945962772223087 3.7423987487863215 0 0 0
420 1 22.876983903480106 7.083041956104209 1.893832106512858 0 0 0
467 1 24.68239471803126 5.281341012713455 1.7254144861877554 0 0 0
483 1 24.574236742834383 8.79132714916032 1.7019825646474058 0 0 0
485 1 24.869205217331825 7.0636736011962125 3.526708498273099 0 0 0
402 1 22.756170918473103 5.33578045838962 0.07734580918527885 0 0 0
470 1 26.561360825433443 5.1666265698102665 3.6610484610880887 0 0 0
484 1 26.557506706824594 7.110743619955231 1.7964174061858043 0 0 0
486 1 26.77324138035767 8.967465028543417 3.467605060366701 0 0 0
531 1 28.383525374828835 5.318694098102468 1.7728219851880653 0 0 0
547 1 28.548671877047916 9.084552434080836 1.543949024926995 0 0 0
549 1 28.366227842623374 7.100305425509024 3.617867134326418 0 0 0
534 1 30.442154004726028 5.443235929225757 3.6963595487774077 0 0 0
548 1 30.319009910789674 7.1750489430866375 1.757351266490615 0 0 0
550 1 30.390639918134898 8.967938533329953 3.36494790901369 0 0 0
595 1 32.27924140081163 5.470299361228372 1.8087573008313862 0 0 0
611 1 32.396735560085766 8.930966633415071 1.63104637644642 0 0 0
613 1 32.15655140615488 7.2518366285291025 3.5987731847207636 0 0 0
598 1 34.18363043030439 5.45257645933267 3.730632144535092 0 0 0
612 1 34.1774988503025 7.207067401574984 1.742807082379027 0 0 0
614 1 34.09779539905668 9.12239068178029 3.5557099006639517 0 0 0
659 1 36.10937012471482 5.60216734478634 1.8377096739460768 0 0 0
675 1 36.12600251591693 8.975591660868536 1.5765390513236794 0 0 0
677 1 36.01648016426944 7.3570372997734275 3.5712684346058903 0 0 0
662 1 37.936758090217225 5.2798598541566175 3.5812380970717523 0 0 0
676 1 38.17979367503273 7.3371847195211615 1.9552014645720786 0 0 0
678 1 38.2063473989753 9.138611674805697 3.6845426597641775 0 0 0
658 1 38.04589009807774 5.440619371782125 0.046915363270593244 0 0 0
723 1 39.96700379614547 5.652087343151103 1.8345415075948543 0 0 0
739 1 40.01209601841839 9.095511900128235 1.810523457480914 0 0 0
741 1 40.05685569364753 7.279772234237023 3.60858592424201 0 0 0
726 1 41.85931123118869 5.4994190440901916 3.657393198926131 0 0 0
740 1 42.07724624103665 7.178509543858769 1.7557484587284704 0 0 0
742 1 41.74453287327195 9.011515129839168 3.7875608182191254 0 0 0
722 1 42.044549326435295 5.433697696341937 0.002295955954124733 0 0 0
787 1 43.85361479739332 5.460269006390068 1.9037075800150776 0 0 0
803 1 43.897508851165156 9.04910743566831 1.776200528072267 0 0 0
805 1 43.79828971308894 7.405673791216888 3.608221723648159 0 0 0
790 1 45.62136962450241 5.546404595496321 3.5599884719147132 0 0 0
804 1 45.828536958774016 7.229847127299131 1.7192900155473414 0 0 0
806 1 45.76876881816687 9.10321755769858 3.6679427931226356 0 0 0
867 1 47.626211553904184 8.975101214940798 1.6995601044962152 0 0 0
869 1 47.609756193216754 7.183779325585314 3.627968385573378 0 0 0
851 1 47.55408765119276 5.5293143835622445 1.7318789905695804 0 0 0
854 1 49.43350997010604 5.394167599481433 3.621024924267575 0 0 0
868 1 49.466544688273174 7.133292339123264 1.7104343656512522 0 0 0
870 1 49.504997882412795 9.025618512813635 3.5613596001055066 0 0 0
915 1 51.25769827128136 5.41005492546307 1.8729697293851144 0 0 0
931 1 51.46634393891829 9.034528716091488 1.61693017328195 0 0 0
933 1 51.34348338854501 7.262665221038289 3.365352678703615 0 0 0
850 1 49.48623183188866 5.460394669349441 0.007368710573093296 0 0 0
929 1 51.455366181933 7.246424735584275 0.03985142250214432 0 0 0
866 1 49.60496006972778 8.983803061133871 0.0011826868571240823 0 0 0
918 1 53.337013158579765 5.440193333962557 3.53604938679409 0 0 0
932 1 53.27157663559965 7.479415331266655 1.8431392745830877 0 0 0
934 1 53.280721091390575 9.13285522632886 3.54077068384069 0 0 0
979 1 55.18674021489113 5.373944514583848 1.7708149945437457 0 0 0
995 1 55.30794281800575 9.182797477695571 1.811654467231236 0 0 0
997 1 55.02074008266776 7.405917785302808 3.471367227465452 0 0 0
993 1 55.069194794065254 7.438104561436751 0.08264421509446673 0 0 0
914 1 53.32434618692839 5.548418284158514 0.11460705301059194 0 0 0
982 1 57.04125738761391 5.436926895193286 3.65542823099206 0 0 0
996 1 56.961942787325114 7.32597462767622 1.902227574424809 0 0 0
998 1 57.10962477561313 9.061142176061692 3.717164134853025 0 0 0
1043 1 58.88074801020991 5.4527985973061925 1.7016398930671097 0 0 0
1059 1 59.038356335010995 8.95825231456609 1.8344556668290954 0 0 0
1061 1 58.96524344492576 7.195494132563523 3.6183658193065495 0 0 0
1057 1 58.95992238664958 7.274106149632579 0.052150511486221615 0 0 0
994 1 56.97746387437524 8.882287551919362 0.011873489635225769 0 0 0
978 1 57.08587167047784 5.4462261429942895 0.049774433906146776 0 0 0
1046 1 60.83273511229269 5.354669785101561 3.544381972661967 0 0 0
1060 1 60.8549768179325 7.21670116027342 1.8481203076824508 0 0 0
1062 1 60.89812931835139 9.139610762670149 3.6940923634969107 0 0 0
1107 1 62.72094890529865 5.56750594909275 1.8676325973266217 0 0 0
1123 1 62.82784257577282 8.952565078711165 1.7758142405058572 0 0 0
1125 1 62.85991907153033 7.300915110556019 3.7065275387233387 0 0 0
1126 1 64.47647797963484 9.226888768755702 3.6760090774913157 0 0 0
1110 1 64.5863848054191 5.359574614080678 3.618292874856369 0 0 0
1124 1 64.66500270737909 7.196702074321088 1.850836541408216 0 0 0
1171 1 66.42937931793284 5.284340392918305 1.7452506834304393 0 0 0
1187 1 66.40450421766225 9.184090651096968 1.8143021309565677 0 0 0
1189 1 66.47328431920847 7.196533114969392 3.507876421602061 0 0 0
1122 1 64.57390686468503 8.999885654691235 0.049542994615911856 0 0 0
1106 1 64.53200368557282 5.423119696001537 0.036358824222019075 0 0 0
1185 1 66.45648115709945 7.255898214764209 0.1780934893276377 0 0 0
1190 1 68.37716053438687 9.104273001863062 3.497377965808503 0 0 0
1174 1 68.39215266518266 5.384387125313207 3.5832602320265545 0 0 0
1188 1 68.38238445018496 7.261508291250032 1.7652099116367461 0 0 0
1170 1 68.39391343230328 5.6190493508861366 0.06134172435940617 0 0 0
1235 1 70.10995239614223 5.445655553577994 1.8693005809722347 0 0 0
1238 1 72.12708093184736 5.307940847753706 3.566135153368389 0 0 0
1251 1 70.24002319522693 9.225496867795622 1.8551879019508168 0 0 0
1252 1 72.15196165689304 7.3670443117427045 2.027331016806898 0 0 0
1253 1 70.18142761737128 7.2756420661348224 3.5410390345582505 0 0 0
1254 1 71.87850656115342 9.303718655087312 3.6203844482205074 0 0 0
1250 1 72.11876098947782 9.171478640046644 0.14881911628753164 0 0 0
1234 1 71.96589935699002 5.676693583444556 0.04799877413868167 0 0 0
1249 1 70.24629013826355 7.3931715926643005 0.13815994809273807 0 0 0
4 1 0.23383036874176288 14.297609586011651 1.945955605087558 0 -1 0
5 1 -1.6791995806529785 14.161105578728934 3.594933784059499 0 -1 0
51 1 -1.575238948451137 12.597274508793468 1.6810370735593427 0 0 0
52 1 0.33324208620455065 10.936708059080045 1.597086796541656 0 0 0
53 1 -1.3796565186910765 11.024127494986734 3.583197854182514 0 0 0
54 1 0.3042796574875903 12.653617961986443 3.7285463977751014 0 0 0
115 1 2.08438736006366 12.708480917758278 1.7730245389611647 0 0 0
117 1 2.0680739675631097 10.839450822226548 3.5463829948235284 0 0 0
69 1 2.2835751927052446 14.342066009781027 3.751799884941859 0 -1 0
116 1 3.7737729354472695 10.886363758953213 1.7609143037632733 0 0 0
118 1 3.9949631981506943 12.70912573725345 3.571314580792259 0 0 0
179 1 5.916058047773038 12.557360781749145 1.830132576395753 0 0 0
181 1 5.826586979061991 10.804299614257317 3.527892470038005 0 0 0
180 1 7.590503331014622 10.727546433009687 1.6934742146320767 0 0 0
182 1 7.596789604132739 12.707718161978603 3.5997819677271155 0 0 0
243 1 9.435293953118478 12.57833370059075 1.8476172415459589 0 0 0
245 1 9.546037914781445 10.947544437760703 3.502376603600042 0 0 0
261 1 13.250643402482925 14.264195679257329 3.6021427222541345 0 -1 0
196 1 11.46529053403939 14.25977210710749 1.715741789528342 0 -1 0
244 1 11.399140613297353 10.921610393067525 1.7352796084189217 0 0 0
246 1 11.288321015013029 12.659496037238274 3.599529032778737 0 0 0
307 1 13.393386628207582 12.612580804947596 1.7558280663950085 0 0 0
309 1 13.285956285252421 10.87933124068903 3.4974877928083745 0 0 0
305 1 13.322628585216506 10.840105610526107 0.0021815792116548494 0 0 0
260 1 15.199142986717618 14.397309046914756 1.801340605833285 0 -1 0
308 1 15.335971921754115 10.74548033908779 1.8527599051724848 0 0 0
310 1 15.231690635907368 12.658366443650062 3.5012940633367897 0 0 0
371 1 17.118784968033417 12.648660708196216 1.9957596257863932 0 0 0
373 1 17.125748291624944 10.839702735306318 3.7071791782993713 0 0 0
321 1 17.08214467197234 14.396186797324395 0.07566128903630953 0 -1 0
306 1 15.285962003181714 12.537790514820333 0.14212449931288876 0 0 0
369 1 17.15261279044506 10.879744215083843 0.014445582707378907 0 0 0
389 1 20.80458852062915 14.220946914549359 3.630030318413507 0 -1 0
372 1 19.049811493834667 10.726055358275387 2.0435633711298884 0 0 0
374 1 18.981498030232764 12.66735283977903 3.6138462318238975 0 0 0
435 1 20.880180569957115 12.595477684967804 1.8281822143627984 0 0 0
437 1 20.92001756956408 10.913730701042857 3.74894732163794 0 0 0
370 1 19.12151102342732 12.509546581981558 0.15935428098366294 0 0 0
453 1 24.610301536415605 14.378844415977383 3.6663925302050484 0 -1 0
388 1 22.84519598551881 14.293562178909253 1.691658591773007 0 -1 0
438 1 22.806229465742984 12.643212272505625 3.5960872345665247 0 0 0
436 1 22.860794298779048 10.740641463964826 1.878756754213729 0 0 0
499 1 24.532679020901426 12.57843362257219 1.782157538986101 0 0 0
501 1 24.83274220612935 10.710519984063819 3.5490378072044093 0 0 0
449 1 24.773017807949085 14.275846069241606 0.08755235066301392 0 -1 0
497 1 24.622320395952297 10.82956292353013 0.01151468417753671 0 0 0
452 1 26.59146905258623 14.361226139714956 1.8555340662507633 0 -1 0
500 1 26.608927896872302 10.810753932591737 1.7996801664203348 0 0 0
502 1 26.435719140301536 12.639297664001278 3.6683690031291154 0 0 0
498 1 26.644906657331713 12.614359987140777 0.033893187466283815 0 0 0
517 1 28.396481213190913 14.229468060839569 3.554988980511351 0 -1 0
563 1 28.57382592636723 12.52727574458304 1.7576300803858533 0 0 0
565 1 28.3807545757901 10.752071381514195 3.5984930296669555 0 0 0
516 1 30.447934561036757 14.36224310417061 1.8267163267617594 0 -1 0
564 1 30.531584484376015 10.719582689452805 1.55982338312086 0 0 0
566 1 30.30183925736655 12.491576507434656 3.568794237013393 0 0 0
627 1 32.28306993592144 12.548393686906232 1.5535013336120647 0 0 0
629 1 32.318326832930886 11.004272717181362 3.4889248920369447 0 0 0
628 1 34.168495597948386 10.837897763801722 1.8262934856032917 0 0 0
630 1 34.3350663922766 12.758236980884494 3.657542343905393 0 0 0
645 1 36.13948389110659 14.425182930164379 3.678322455669452 0 -1 0
691 1 36.125744707197455 12.547450431317747 1.8652154393930318 0 0 0
693 1 36.157417824028244 10.732659870689593 3.566078101842315 0 0 0
641 1 36.12280130001206 14.425023466004454 0.08938623900733923 0 -1 0
689 1 36.23149279269938 10.773618826312534 0.024257521195402483 0 0 0
705 1 39.91343694865241 14.33269472771061 0.15981503065254074 0 -1 0
644 1 38.01360328921783 14.28983796010007 1.8762840448720464 0 -1 0
692 1 38.072339689078674 10.77090676416325 1.7496238577887873 0 0 0
694 1 38.07664839513337 12.525250548545184 3.5605192181217125 0 0 0
690 1 38.06427473486381 12.655331299080386 0.05783081698754931 0 0 0
709 1 39.85891240646742 14.390117356847455 3.530462745614256 0 -1 0
755 1 39.937726675484164 12.455826213806178 1.8348287726506167 0 0 0
757 1 40.018234077396414 10.853957653714161 3.7634074142847993 0 0 0
708 1 41.88667176625119 14.365860541364077 1.9678642891740163 0 -1 0
756 1 41.9184419612231 10.82344589086684 1.890367779966381 0 0 0
758 1 41.82691986764333 12.63977058339123 3.6845499186725768 0 0 0
754 1 41.92655128381613 12.609544909620366 0.18823555485217058 0 0 0
821 1 43.77674969391463 10.742025362053718 3.7264495191650404 0 0 0
819 1 43.79486840049526 12.58778138720728 2.0157721016065184 0 0 0
817 1 43.82457158874695 10.864862613580783 0.07559088649163934 0 0 0
769 1 43.85806390257833 14.42653669654071 0.1379985183113276 0 -1 0
837 1 47.60611134910669 14.409001945060282 3.6097285049536443 0 -1 0
820 1 45.827627586002976 10.801711785066987 1.8763083627218349 0 0 0
822 1 45.73375749089383 12.673331881156841 3.733759621782395 0 0 0
885 1 47.61822989626686 10.882004120266592 3.6452580621919735 0 0 0
883 1 47.71934396931511 12.593990023402439 1.7405753059376474 0 0 0
833 1 47.559343019709104 14.416328999674693 0.09509713151292286 0 -1 0
818 1 45.63309154562978 12.723882867569879 0.21516669913612896 0 0 0
901 1 51.34471165241089 14.437442341128111 3.6306776822810214 0 -1 0
836 1 49.504238856192046 14.434335620364317 1.904147479586371 0 -1 0
884 1 49.449039200577076 10.760496525304237 1.6933717393772891 0 0 0
886 1 49.58073333162181 12.579639564593071 3.5259850976347376 0 0 0
947 1 51.5666981037475 12.573687904590248 1.8376664507777176 0 0 0
949 1 51.363363663089565 10.925617390534114 3.6082317000091613 0 0 0
897 1 51.38983655648761 14.43897105101308 0.08282934838209363 0 -1 0
945 1 51.291684085353964 10.96310335468967 0.03635238240173599 0 0 0
882 1 49.561465719058496 12.755871444215806 0.024004076818801012 0 0 0
948 1 53.25780371036315 10.767015915696938 1.76041362485212 0 0 0
950 1 53.40350681462214 12.64822195443594 3.6902632925355916 0 0 0
1011 1 55.14503939075549 12.69720257255421 1.8228825870118055 0 0 0
1013 1 55.250874441106255 10.889041448463567 3.5444223412377376 0 0 0
946 1 53.322316435534646 12.660617734687285 0.09322493276535812 0 0 0
1029 1 58.957415728533505 14.349351423550845 3.7142270918580844 0 -1 0
964 1 57.04605994666432 14.39691406298401 2.004695418111114 0 -1 0
1012 1 57.13810612559363 10.846175247660536 1.9018701715335544 0 0 0
1014 1 57.07006356451122 12.581079469514806 3.725465625657801 0 0 0
1075 1 59.02639120202596 12.652517933598789 1.8263678932123548 0 0 0
1077 1 59.02187225961503 10.925549148863734 3.5784387582313735 0 0 0
1010 1 57.06392442272883 12.67052562790087 0.1021229706790313 0 0 0
1073 1 58.939357157103665 10.836046182584782 0.20588859379605173 0 0 0
1093 1 62.48573125703912 14.36310732592553 3.8192793554516107 0 -1 0
1028 1 60.818486313085565 14.401418224735053 1.934551311504614 0 -1 0
1076 1 60.8907376847678 10.842826438033832 1.8713499388062316 0 0 0
1078 1 60.82537998902961 12.598922255696717 3.780546295288169 0 0 0
1139 1 62.71491072947905 12.833505811237416 1.781970480795356 0 0 0
1141 1 62.77654927387558 10.974661831831307 3.5704093474108234 0 0 0
1074 1 60.8315172788246 12.66456720513285 0.1023332400208877 0 0 0
1140 1 64.50101221569297 10.896948288177287 1.5963923928296566 0 0 0
1142 1 64.58806525541448 12.819443965307514 3.669515060451542 0 0 0
1203 1 66.4675298798815 12.762878290431889 1.9001727090635694 0 0 0
1205 1 66.35746139837275 10.943603773463535 3.536311314753114 0 0 0
1201 1 66.53124471733913 10.953524691924285 0.10924164368113921 0 0 0
1206 1 68.26258707204578 12.745777409566683 3.8509470483778103 0 0 0
1204 1 68.43351423880925 11.074963978757642 1.753071288796023 0 0 0
1267 1 70.19132490605999 12.893906566140476 1.8471405850388907 0 0 0
1268 1 71.95586692447982 11.029544520307965 1.8508340972280448 0 0 0
1269 1 69.94761119728607 11.067767751857717 3.6783335741392444 0 0 0
1270 1 71.9624849266846 12.763009577343347 3.4961953300465636 0 0 0
7 1 -1.6640983819485258 1.793590974578038 5.266289019096226 0 0 0
10 1 0.20507383325420364 1.8450771505480303 6.963624241670549 0 0 0
11 1 -1.6462603082783738 1.9360690959327893 8.70473001673446 0 0 0
24 1 0.2662739716394724 3.621629375255206 5.170270340723633 0 0 0
25 1 -1.51524646799658 3.757150362819988 6.922387261100717 0 0 0
28 1 0.2839066993666604 3.4671802062413137 8.947339422991128 0 0 0
71 1 2.001817660049289 1.8726676693198432 5.22600797828073 0 0 0
75 1 2.0700293055933123 1.862454205490111 8.926025772793347 0 0 0
12 1 0.25554982550682165 0.028857690927209315 8.781596201856985 0 0 0
9 1 -1.7050393373172141 0.06409550694682517 7.156060437892023 0 0 0
89 1 2.243228451862702 3.53421423268785 7.1162896491995635 0 0 0
73 1 2.2563530984987157 0.04790277744004044 7.13294801091326 0 0 0
74 1 4.0575647222159725 1.8178033422297326 7.173277863923099 0 0 0
88 1 3.9423853561395217 3.5224682087295576 5.2509515350352896 0 0 0
92 1 3.8905486165750816 3.6201361061231108 8.863323107733082 0 0 0
135 1 5.849981261957508 1.6487828440822503 5.3940258567170325 0 0 0
139 1 5.834426071680284 1.8166188082638728 8.902603016552867 0 0 0
153 1 5.858419268934387 3.506569803178847 7.148576360951682 0 0 0
137 1 6.064391984278595 0.002063605188912021 7.1655445365867205 0 0 0
138 1 7.785439044349314 1.8255154076158298 7.221995754149998 0 0 0
152 1 7.642505595260568 3.761550597602345 5.497391906289761 0 0 0
156 1 7.729201215199767 3.4513055584150236 9.019123441480891 0 0 0
199 1 9.544318129870195 1.718023343493201 5.519757139099725 0 0 0
203 1 9.63108586016311 1.7443313093518766 9.001321020861488 0 0 0
217 1 9.476735674699057 3.624644668090567 7.240994646388796 0 0 0
201 1 9.43699585711481 0.0024937360937329345 7.347752601930111 0 0 0
202 1 11.394177151104815 1.838114619638075 7.294556771370766 0 0 0
216 1 11.411227182359271 3.5307434437073963 5.48262531407308 0 0 0
220 1 11.500782094602448 3.6305058470357734 8.942699692216626 0 0 0
263 1 13.338844558231955 1.7410972863059415 5.329618441837166 0 0 0
267 1 13.328586571323564 1.90377314345406 8.963258683888903 0 0 0
281 1 13.27344654957898 3.606113563225506 7.1174784252617656 0 0 0
265 1 13.21526846088772 0.18053492816201766 7.323115963572093 0 0 0
266 1 15.159908844352545 1.7265571788410636 7.318889287839216 0 0 0
280 1 15.20069373397997 3.614832708714987 5.435667490838194 0 0 0
284 1 15.377922177073295 3.476163186755748 8.964779278112161 0 0 0
327 1 17.05900727021428 1.9114938438105091 5.548293208741814 0 0 0
331 1 17.07681981077345 1.5832916427320878 8.931838906540644 0 0 0
345 1 17.186578287901515 3.599510075577202 7.185245624948766 0 0 0
330 1 18.897412699270014 1.7961011009492984 7.255911890372152 0 0 0
344 1 19.13643614150477 3.521991180587554 5.250971558339142 0 0 0
348 1 19.01878597097227 3.4228219663002175 9.028105606911627 0 0 0
391 1 20.780021746762458 1.5324770254354008 5.4737273683676335 0 0 0